,composition,Eg
1168,NaBiS2,0.38
1169,RbAg2SbS4,2.3
1170,Ge0.92Si0.08,0.72
1171,Ca2Ti9O13,0.0
1172,Ba7B3O9F5,4.94
1173,CdTe,1.43
1174,DyTe1.45,0.6
1175,Nd2ZrS5,1.83
1176,Ce2Sb3Pd9,0.0
1177,Mg2Sn,0.3
1178,Sr5Sn3,0.0
1179,TmSiCu,0.0
1180,UY4O3S5,1.95
1181,Cu2Te,1.02
1182,CaAgF5,0.0
1183,GaTe,1.67
1184,Nd2YbCuS5,1.35
1185,Sb2Te,0.0
1186,ZnSe,2.76
1187,ZnO,3.42
1188,ZnO,3.25
1189,Li5Fe2Ni3O10.2,0.0
1190,In2As2O5Cl2,4.62
1191,Cs4Ag9Sb4S12,2.0
1192,TaGaS2,2.56
1193,GaAs0.05Sb0.95,1.28
1194,PbCl2,4.1
1195,Mg2CuWO6.1,0.0
1196,LiInSe2,2.83
1197,Rb3Sb2Br9,2.48
1198,Sn2SbS2I3,1.5
1199,TlCr5S8,1.01
1200,Li2InAg,0.0
1201,Ag0.2Cd0.75In2.1Te4,0.54
1202,SmAlCu,0.0
1203,HoCdCu4,0.0
1204,SbSeI,1.66
1205,NaB15,0.32
1206,Ce2Te3,1.22
1207,Ti2TcPd,0.0
1208,Ga0.75As0.75Zn0.25Se0.25,1.51
1209,Pb0.83Sn0.17Se,0.04
1210,SmSiCu,0.0
1211,Sb2Te3,0.19
1212,SrGe2,0.9
1213,HfB4Ir3,0.0
1214,BiZn2VO6,2.4
1215,Pr4InSbSe9,1.89
1216,YbCaInSe4.62,0.0
1217,LaHg,0.0
1218,HoGeAu,0.0
1219,Ag4Ba6Sn4S16,2.37
1220,Sm6Br13,0.0
1221,La3FMo4O16,3.7
1222,Bi38ZnO58,2.88
1223,KUCuSe3.63,0.0
1224,CdCl2,5.8
1225,Eu3In2P4,0.45
1226,SnGa2GeS6,2.04
1227,Ho3AlC,0.0
1228,TmMnO3,0.0
1229,KI,5.61
1230,AlSb,1.6
1231,Hg3ZnS2Cl4,2.65
1232,GaN,3.5
1233,PrCo2Ge2,0.0
1234,TlCu6S4,0.0
1235,Cd3As2,0.14
1236,Ba4Ga4SnSe12,2.16
1237,Cu0.99Ga1.01Se2.01,1.59
1238,As2S3,2.5
1239,Li2B6,2.0
1240,Ca5Sn4S13,0.0
1241,U3Bi4,0.0
1242,YbMn2As2,0.0
1243,Zn0.85S0.85Ga0.15P0.15,2.4
1244,Cu2SnSe3,0.83
1245,Sc2CuRu,0.0
1246,CaHg2,0.0
1247,NaAlGeS4,3.6
1248,In0.94As0.94Cd0.06Te0.06,0.68
1249,SnS0.01Se0.99,0.95
1250,SnGa4S7,3.1
1251,ZnIn2S4,2.99
1252,EuTe,2.06
1253,As2S6,2.35
1254,Ti4ZnO8,0.0
1255,CdSb,0.46
1256,MgTi4O6,0.0
1257,EuH2,1.85
1258,BiAs2Os,0.0
1259,DyAl8Cu4,0.0
1260,Pr2YbCuS5,1.25
1261,Pb0.85Sn0.15Te,0.13
1262,RuSe2,1.0
1263,EuP2Os2,0.0
1264,MgMnRh2,0.0
1265,CsZn4In5Te12,1.61
1266,B2O3,4.9
1267,Cs3Nb2AsSe11,1.35
1268,TlBr,2.67
1269,CdS,2.6
1270,Tl3VS4,1.97
1271,Si2Te3,2.16
1272,LiGaGe2Se6,2.64
1273,Sc2GaIr,0.0
1274,Nb3VS6,0.0
1275,AlP,2.51
1276,Tl2O3,2.25
1277,Rb9Bi13S24,1.3
1278,Ta2MoOs,0.0
1279,Cu3AsSe4,0.88
1280,Mg3P2,1.4
1281,Sb2S3,1.72
1282,Dy5Pb3,0.0
1283,Li2In2GeSe6,2.3
1284,Ca3B2N4,3.9
1285,Ba3YIr2O9.194,0.0
1286,Hg4P2ZrCl6,3.22
1287,Li3Ti2(PO4)3.12,0.0
1288,Ga0.1As0.1Zn0.9Se0.9,2.34
1289,K2Mo2Se2O11,3.3
1290,GdZnIn,0.0
1291,NdBRh3,0.0
1292,Ga0.65Al0.35As,2.0
1293,LiCo(CO3)2.12,0.0
1294,RuCl3,0.0
1295,Tl2PrInSe4,0.93
1296,In0.5P0.5Ga0.5As0.5,1.75
1297,LiZr2Os,0.0
1298,RuP4,0.38
1299,As2Se3,1.73
1300,YbTe,1.8
1301,Rb2Hg3Ge2S8,2.8
1302,CuBr,3.07
1303,Sn2S,0.85
1304,EuYb2Se4,1.3
1305,ZnS,3.73
1306,EuIn2Se4,1.31
1307,TlCu3Lu2Se5,2.12
1308,CdP4,1.15
1309,K4Nb2S11,2.42
1310,ZnIn2Te4,1.8
1311,AgIn5S8,1.76
1312,SmSi3Pt5,0.0
1313,CdS,2.52
1314,PrTe2,1.02
1315,TiAlAu2,0.0
1316,Cr2HgSe4,0.0
1317,MgMnO3,0.0
1318,Bi2Pd3S2,0.0
1319,CrFeP,0.0
1320,Ba4Si20Au3,0.0
1321,Eu4Te7,0.31
1322,MgZn2,0.0
1323,GaSe,2.1
1324,TlSbTe3,0.38
1325,Li3Co3SbO8.2,0.0
1326,YAl8Cu4,0.0
1327,InN,2.4
1328,Hf5Sb9,0.0
1329,YbSb,1.0
1330,La2Ge2Se7,1.08
1331,YbSi2Rh2,0.0
1332,EuAlO3,0.0
1333,AlSb,1.52
1334,RbCu2AsS3,1.96
1335,BaS,3.9
1336,MgInPd2,0.0
1337,NaSbF6,3.76
1338,Tl2TeS3,1.6
1339,Mg2Sn,0.33
1340,Ce3AlC,0.0
1341,Hg0.63Cd0.37Te,0.35
1342,YbBO3,0.0
1343,EuLi2Sn,0.0
1344,PbI2,2.54
1345,CuFeSe2,0.15
1346,LiGaO2,5.6
1347,Ti2Sb(PO4)3.167,0.0
1348,La5Cu6.33O4S7,2.0
1349,Cd4V3Te3O15,2.66
1350,InP,1.26
1351,In0.99Al0.01P,1.3
1352,Pb0.999Sn0.001Te,0.21
1353,TbMn6Ge6,0.0
1354,CuInSe2,1.07
1355,BaTe,3.4
1356,PrIn,0.0
1357,Ga0.8Al0.2P,2.3
1358,K3Cu3Th2S7,2.49
1359,LiCu5P3O13.2,0.0
1360,YCdPd2,0.0
1361,Tm2TcCu,0.0
1362,ZnGeP2,2.34
1363,CeP2Pt4,0.0
1364,Zn0.95S0.95Ga0.05P0.05,3.0
1365,Li3Mn4O8,0.0
1366,YbAgO2,0.0
1367,Ga0.8Sb0.8Zn0.2Te0.2,1.15
1368,Ta6Be15Cu8,0.0
1369,RePO5,0.0
1370,In0.3P0.3Ga0.7As0.7,1.67
1371,RuP2,0.8
1372,Li4Mn(WO4)3.1,0.0
1373,K2Cd3Te4,2.26
1374,KInSe2,2.68
1375,CuGaSe2,1.71
1376,Ba5In4Te4S7,2.13
1377,Cu0.2Ga1.8S2.8,2.7
1378,NaSbP2S6,2.17
1379,MnSb2O6,0.0
1380,PdI2O6,1.31
1381,Bi2Te2.1Se0.9,0.3
1382,Ag3AsS3,2.1
1383,Na19Zr11S30,0.0
1384,Ca11Ga7,0.0
1385,TlN3,3.58
1386,Re2W3C,0.0
1387,ScBPd3,0.0
1388,YbCdHg2,0.0
1389,BaAl2,0.0
1390,CuIn3Te5,1.2
1391,Mg5B3O9F,5.63
1392,FeSn,0.0
1393,TlGaTe2,1.8
1394,Na8NbO6,0.0
1395,ScZnNi2,0.0
1396,PbBr2,3.31
1397,EuTiClO3.12,0.0
1398,Li2HgGe,0.93
1399,YH2,0.0
1400,LiTiSiO4.63,0.0
1401,CuP2(HO3)2.14,0.0
1402,Lu2AgAu,0.0
1403,YZn5,0.0
1404,Sm3Zr,0.0
1405,HgTe,0.15
1406,SmB2Os2,0.0
1407,CdCuSe2O6,3.33
1408,Na4MgGe2Se6,2.53
1409,NiP4O12,0.0
1410,Ga1.005Sb0.995Te0.015,0.68
1411,TaGaSe2,2.15
1412,GaAs0.65Sb0.35,0.68
1413,LiInAg2,0.0
1414,LaZnAu2,0.0
1415,Cu4W(SCl)4.139,0.0
1416,Ba2BiSbO6.2,0.0
1417,Pb0.8Se0.8Ge0.2Te0.2,0.36
1418,TlBr,3.3
1419,Lu2CrS4,1.75
1420,Ti2Cd,0.0
1421,K3B6O10Cl,6.89
1422,Li2HgSiS4,2.68
1423,BaO,4.8
1424,CaTaO2N,2.4
1425,KLi(WO3)3.9,0.0
1426,Cd4GdB3O10,3.8
1427,GaSe,2.13
1428,TaF3,0.0
1429,Ba4CuInSe6,2.23
1430,CdSe,2.27
1431,VTeO5H,2.51
1432,RbCl,8.3
1433,TlInSe2,1.44
1434,EuBiW2O9,3.63
1435,Hg0.8Cd0.2Se,1.3
1436,ZnSnP2,1.45
1437,CeIr5,0.0
1438,Na2ZnGe2Se6,2.36
1439,Hg4As2CdI4,1.45
1440,ZnS,3.69
1441,Li8PO3,0.0
1442,BiI3,2.03
1443,Fe2TiSi,0.4
1444,AsSeBr,0.0
1445,LiNbO3,4.3
1446,SnBr2,3.4
1447,Cd2PbO4,0.0
1448,BTe2As,0.0
1449,K3CdB5O10,3.47
1450,TbGa3,0.0
1451,In0.9P0.9Ga0.1As0.1,1.32
1452,ErNi4B,0.0
1453,LaCuOTe,2.31
1454,Bi2O3,2.91
1455,ZnS,3.85
1456,CaBi2O4,3.08
1457,AgCNO.65,0.0
1458,Cr2S3,1.1
1459,YbAl4Mo2,0.0
1460,EuFe2Si2,0.0
1461,CuFeS2,0.43
1462,TaGaS2,2.46
1463,NaHg,0.0
1464,Pb0.93TeIn0.07,0.32
1465,CsF,10.0
1466,AsSI,2.05
1467,YRe4Si2,0.0
1468,Rb2Cu2Sb2S5,1.6
1469,CdSb,0.47
1470,TlCoBi,0.0
1471,As2S5,2.48
1472,ScPPt,0.0
1473,KSbS2,1.8
1474,K2Ta15O32,0.33
1475,GeSe,1.28
1476,EuAl2O4,2.74
1477,TlInSe2,1.22
1478,GaSe,2.04
1479,In0.8P0.8Ga0.2As0.2,1.4
1480,Pb0.98Se0.98Bi0.04Te0.06,0.28
1481,Yb3Tc,0.0
1482,ZrSi2,0.0
1483,Sb8O11I2,2.72
1484,BaPt5,0.0
1485,NaIrPb,0.0
1486,Sr8Co8O23,0.0
1487,TlMo3Se3,0.0
1488,Zn0.99S0.99Ga0.01P0.01,3.7
1489,Mn3Ta2O8,1.89
1490,PW5O17,0.0
1491,Li2Fe3CoO8.4,0.0
1492,Y2Ge5Ir3,0.0
1493,RbBr3,0.0
1494,CsCd4Ga5Te12,1.67
1495,SrCo2P2,0.0
1496,CdIn2Se4,1.57
1497,Ca3N2,1.55
1498,Zr3O,0.2
1499,GaSe,2.12
1500,PmLi2Ge,0.0
1501,PtS,0.64
1502,CaMn2As2,0.0
1503,Li5La3Nb14O42.12,0.0
1504,Ti3Pt5,0.0
1505,Na2Ti2Sb2O.139,0.0
1506,Na5GdMo4O16,3.38
1507,CaMg2N2,3.25
1508,Ag2ZnSiS4,3.28
1509,PtP2,0.6
1510,In2Se,0.65
1511,ThPd3,0.0
1512,PbO2,1.45
1513,Zr3NiO,0.0
1514,TlSe,0.75
1515,TlCl,3.5
1516,Ce3In3Ru2,0.0
1517,Li4MgNi3O8.166,0.0
1518,TlCl,3.23
1519,K1.83Cd1.83Bi2.17S6,1.37
1520,EuLu2Se4,1.7
1521,Cu0.4In1.6Se2.6,1.32
1522,K4GeSe4,0.64
1523,Cu3GdTe3,0.52
1524,NaSmP2S6,2.54
1525,CeB2C2,0.0
1526,CeAl3Ni2,0.0
1527,TbCo2Ge2,0.0
1528,KZn4B3O9,2.32
1529,K2CuGa3Se6,1.72
1530,Rb2AgVS4,1.83
1531,RbCl,8.2
1532,Na3Re,0.0
1533,Hf5Pb,0.0
1534,Li8Ti16CuS32.1,0.0
1535,RbSbS2,2.13
1536,Bi2Te2.4Se0.6,0.27
1537,Mg3Ge,0.0
1538,RbVP2S7.5,0.0
1539,Ni2Mo3N,0.0
1540,Cu0.3Ga1.7S2.7,2.55
1541,TlBr,3.12
1542,Al0.74Gd3Si0.7S7,2.34
1543,Cu0.05Ga1.95S2.95,2.64
1544,Dy2S3,2.91
1545,Ba2B6O9(OH)4,6.53
1546,Se3Te,1.87
1547,Ca2CdPb,0.0
1548,PrIr2,0.0
1549,PbBiO2Br,2.3
1550,Li3Cu2O4,0.0
1551,Pb0.99Ge0.01Se,0.27
1552,Pb0.85Se0.85Sn0.15Te0.15,0.18
1553,SrAl,0.0
1554,As2S3,3.0
1555,NaInTe2,1.6
1556,MgNiSb,0.0
1557,AgTe,0.73
1558,Sc3Mn2Ga6,0.0
1559,Na15Sn4,0.0
1560,TiS3,0.9
1561,NaCl,8.4
1562,GaSe,2.07
1563,HgCuSe2O6,3.25
1564,Bi2P3O12,0.0
1565,EuSnAu2,0.0
1566,SiAs,1.57
1567,La3CuGeSe7,2.0
1568,SnS,1.3
1569,LuAl2Pd5,0.0
1570,Gd2Mo3O12,4.18
1571,Y2C3,0.0
1572,LiZn(Fe5O8)2.160,0.0
1573,In6Se7,0.72
1574,Mg2GeSe4,2.02
1575,Hg8As4Bi3Cl13,2.43
1576,PrSm3,0.0
1577,LiAlB14,2.05
1578,UNiSn,0.0
1579,LiGaAu2,0.0
1580,PbTe,0.22
1581,Dy2TlCd,0.0
1582,Zr3Al2,0.0
1583,PrAs,1.0
1584,AlN,6.2
1585,Sm2RuAu,0.0
1586,Ta0.67Zr1.33O0.42N2.61,1.93
1587,GaSe,2.15
1588,Hg0.01Zn0.99Te,2.17
1589,Pb0.85Se0.85Sn0.15Se0.15,0.22
1590,Sb2Se3,1.06
1591,ZrSe3,1.25
1592,CuInS2,1.57
1593,Zn3In2S6,2.8
1594,SmCoC2,0.0
1595,Ag3AsS3,2.0
1596,TbZrSb,0.0
1597,AgGaS2,2.73
1598,Na4MgSi2Se6,2.85
1599,HoN,1.9
1600,Fe12As5,0.0
1601,AgPbBiS3,1.2
1602,K2Gd2Ti3O10,3.3
1603,CuInSe2,0.92
1604,Na11Ti20O40,0.0
1605,Sb2Te3,0.22
1606,NaCuO,0.0
1607,Ag3SbS3,2.08
1608,EuZn,0.0
1609,BaAs2Pd2,0.0
1610,Fe4I3O24H15,2.3
1611,ZnMoSb2O7,3.3
1612,Li3Ni2(GeO4)3.230,0.0
1613,VO2,0.65
1614,La2Ga2GeS8,2.78
1615,LaFe4As12,0.0
1616,DyTe1.7,0.35
1617,TiAsRh,0.0
1618,CdS,2.59
1619,CaPrZn2,0.0
1620,Na3Tl,0.0
1621,GeSe,1.1
1622,LaB6,4.1
1623,Pr2Sr2PtO7.07,3.05
1624,In4As5O12Br3,4.22
1625,CsGaSn2Se6,1.87
1626,Ag7AsSe6,1.0
1627,Ge0.7Si0.3,0.88
1628,CeO2,3.41
1629,AlN,6.03
1630,In0.9As0.9Cd0.1Te0.1,0.69
1631,Pr6Fe13Si,0.0
1632,ZnSe,2.79
1633,VTc,0.0
1634,GeSe2O6,5.31
1635,Mn3NiN,0.0
1636,CdGa2Se4,2.43
1637,SrV13O18,0.0
1638,Ti2TcNi,0.0
1639,Pb2N2SeO9,3.76
1640,BaAlCu4O7.186,0.0
1641,TlInSe2,1.1
1642,LiMoIO6,2.8
1643,Cu0.9In1.1Se2.1,1.06
1644,Ga0.95Sb0.95Cd0.05Te0.05,0.74
1645,GeSe,1.08
1646,Mn2CoAs,0.0
1647,BePd3,0.0
1648,AgBr,2.52
1649,As2S3,2.06
1650,K2ZnSn3S8,2.15
1651,FeSc2,0.77
1652,SmCuOS,2.9
1653,Pb0.8Sn0.2Se,0.06
1654,BMo,0.0
1655,Ho5Si4,0.0
1656,YbIn4Ni,0.0
1657,Ga0.5Al0.5As,2.12
1658,CoW2O8,0.0
1659,Zn3Sb2,0.11
1660,DyCo2Ge2,0.0
1661,RbI,6.1
1662,BaSi2,1.3
1663,Ga9Rh2,0.0
1664,Th2CrN3,0.0
1665,Ga1.01Sb0.99Se0.03,0.62
1666,Zr5Sn3,0.0
1667,PmMgAu2,0.0
1668,Li7Ti16O32,0.0
1669,Li9Fe3(WO4)7.160,0.0
1670,KBiSe2,0.61
1671,CsInGeSe4,2.32
1672,Hg7.5As4Cl6,1.73
1673,Pr2S3,2.68
1674,GeS,1.68
1675,Li2B12Si2,2.27
1676,PrCo4B,0.0
1677,MnGaNi2,0.0
1678,Ir0.67S2,2.0
1679,KF,10.3
1680,SbSI,1.95
1681,RbF3,0.0
1682,SiTe2Os,0.0
1683,Ba3PN,0.0
1684,TiTe2,1.0
1685,BaSnO3,3.1
1686,MnGaPt,0.0
1687,K2Te,1.9
1688,EuSeClO3.62,0.0
1689,LiLu2Ga,0.0
1690,Pm2LiGa,0.0
1691,Cu3AsS4,1.48
1692,Mn5Ge2,0.0
1693,Cd4YB3O10,3.78
1694,Ag3SbS3,1.75
1695,In2Co,0.0
1696,Cu3DyTe3,0.34
1697,CdIn2S4,2.0
1698,BiSBr,1.88
1699,CdSb,0.53
1700,VIr3,0.0
1701,PbCdP4O12,4.85
1702,Hg0.1Zn0.9Te,1.83
1703,TbIn3S6,1.2
1704,UVC2,0.0
1705,LiAsSe2,1.11
1706,Re2PbO6,0.0
1707,Cu3Se2(ClO3)2.12,0.0
1708,PmSnRh2,0.0
1709,InAs,0.35
1710,CaCdSi,0.0
1711,Sr5V3O12F,4.5
1712,CdGa2Se4,2.1
1713,Pb0.72Se0.72Sn0.28Te0.28,0.12
1714,CdS,2.66
1715,SnS0.8Se0.2,1.07
1716,PbTe0.05Se0.95,0.26
1717,Na2ZnSn2S6,2.93
1718,PrB4,0.0
1719,Sm2O3,5.0
1720,ZnSnSb2,0.3
1721,Ti2RuOs,0.0
1722,TeSe3,1.4
1723,UAu2,0.0
1724,InSb,0.25
1725,LiGeRh2,0.0
1726,Ag3AsSe3,1.98
1727,EuSn3,0.0
1728,ZrPd3,0.0
1729,NdTe,0.0
1730,Ba2GaYTe5,1.08
1731,LiMgAs,0.7
1732,Zn0.2Ba2B2S5.2,3.54
1733,Zn0.75Cd0.25Se,3.2
1734,Hf5Sn3,0.0
1735,Te3MoWS.156,0.0
1736,K3Cr2P3S12,1.35
1737,Hg0.25Zn0.75Te,1.37
1738,Hg0.2Zn0.8Te,1.46
1739,AlSb,1.32
1740,NaSi2Pd3,0.0
1741,PbS,0.44
1742,CaCu5,0.0
1743,CdTe,1.58
1744,Rb4Ge3B6O17,5.42
1745,Cu4H10SO12.7,0.0
1746,Er3Al3NiGe2.189,0.0
1747,LiCd2Rh,0.0
1748,MnP2,0.0
1749,Ba23Ga8Sb2S38,2.84
1750,CdGa2Se4,2.25
1751,NaSbS2,1.8
1752,Ge3Sb,0.0
1753,TlScSe2,0.79
1754,ReBiO3,0.0
1755,RbBi2,0.0
1756,Eu2Se3,1.02
1757,TmAl4Ni,0.0
1758,Pb0.8Sn0.2Se,0.06
1759,Pb2Bi5.9La2.1S14,1.0
1760,SrZnSb2,0.0
1761,Bi14.7In11.3S38,1.45
1762,TaAs,0.0
1763,AlPd5I2,0.0
1764,ZnS,3.56
1765,SmAs2Au,0.0
1766,RbGeB3O7,5.58
1767,GaSe,2.0
1768,SnS0.4Se0.6,0.98
1769,Mg2Co,0.66
1770,Al2Ru,0.0
1771,CuBr,3.08
1772,Ca5Bi14O26,2.6
1773,Cs2TeBr6,2.12
1774,PtN,0.0
1775,Ba2AgInS4,2.32
1776,CdS,2.6
1777,InPS4,3.12
1778,PrB6,4.9
1779,CuInS2,1.54
1780,Li6Mo6Se6O33,3.3
1781,V3Ag,0.0
1782,HfSe2,2.2
1783,Sc5Pb3,0.0
1784,CuYO2,3.5
1785,Cs2P2Se8,2.44
1786,Pr4Sb3,0.0
1787,CuGaTe2,1.18
1788,CuGaS2,2.4
1789,SbRh3,0.0
1790,NaNb2PS10,1.72
1791,Ag0.1Cd0.8In2.1Te4,0.29
1792,Pb0.85Se0.85Ge0.15Te0.15,0.32
1793,MgCo2(PO5)2.70,0.0
1794,Sc5Bi3,0.0
1795,Sc2Al3Ru,0.0
1796,GaSb,0.81
1797,YbMgPd,0.0
1798,HfB,0.0
1799,La2PC,0.0
1800,Ag3AsSe3,2.1
1801,Rb2Cd3S4,2.92
1802,GaAs,1.52
1803,Na2In2GeS6,3.17
1804,Li2Ti3FeO8.160,0.0
1805,LiMnCuO4.74,0.0
1806,Ba2CaOsO6.225,0.0
1807,Y2AlZn,0.0
1808,Cu2Ga4Te7,1.08
1809,Ag3AsS3,1.98
1810,ZnO,3.48
1811,Li17Ti20O40,0.0
1812,ZnS,3.6
1813,CeSiI,0.0
1814,CdSe,1.83
1815,ThSi2Ru3,0.0
1816,CrIrO4,0.0
1817,Zr5SiSb3,0.0
1818,SmTe,0.35
1819,CdSb,0.58
1820,BiSb0.15,0.02
1821,AgSbSe2,0.62
1822,InP,1.41
1823,IrP2,1.1
1824,OsPSe,1.4
1825,Tm5Ti5O17,0.0
1826,W2C,0.0
1827,DySi2Cu2,0.0
1828,Ba2InSmTe5,1.36
1829,GeSe,1.22
1830,RbMnTe2,0.0
1831,CaTiO2,0.0
1832,BiBr3,2.66
1833,YCo2,0.0
1834,AgInSe2,1.24
1835,Ga0.3P0.3Zn0.7Se0.7,2.15
1836,Sr10Al4Si6O.71,0.0
1837,Tb3Rb2AlF16.194,0.0
1838,InSiIr,0.0
1839,Bi0.4Te3Sb1.6,0.21
1840,Rb3Al3Ge7Se20,2.4
1841,PbO2,1.5
1842,Ag8GeS6,1.18
1843,La4Cd4In2S13,2.27
1844,GeSe,1.17
1845,La2CoVO6,0.41
1846,MgRh2Pb,0.0
1847,PbTe,0.19
1848,YbGa2S4,2.3
1849,LaIn3S6,1.03
1850,Yb2MgSe4,0.0
1851,La2Ga0.33SbS5,1.76
1852,TlInSe2,1.18
1853,EuTiO3,0.0
1854,BiSeBr,1.96
1855,BiSeI,1.32
1856,V2TcRu,0.0
1857,Li13Ti22O48,0.0
1858,In3Pd5,0.0
1859,Cu4Sn7S16,0.8
1860,Cs2NaMgF6.225,0.0
1861,Te2W2SeS.156,0.0
1862,GaS,2.59
1863,Ba2B6O11,5.17
1864,LiSiRh2,0.0
1865,Co3Se4,0.0
1866,Fe2S,0.0
1867,Pb0.99Se0.99Ge0.01Te0.01,0.23
1868,Ag2BiO3,0.0
1869,CsCd4Ga5S12,3.09
1870,EuEr2Se4,1.7
1871,Tl4CdI6,2.8
1872,YCdHg2,0.0
1873,GaSe,2.16
1874,BaPrO3,2.0
1875,Cu2Hg2SF6.227,0.0
1876,K2B10H9O.14,0.0
1877,Y4C7,0.0
1878,GaSb,0.67
1879,AgSbSe2,0.85
1880,Si30P16Te8,1.24
1881,CoTe1.88,0.2
1882,CsBiS2,1.39
1883,Tm5Ge10Rh4,0.0
1884,AgGaS2,2.56
1885,Tl4Nb2S11,1.8
1886,Bi1.4Te3Sb0.6,0.17
1887,GaSb,0.8
1888,NaBa2Cu3S5,0.45
1889,HfCu2P2,0.0
1890,Cu4Pd,0.0
1891,DyNiGe2,0.0
1892,AgInCd2Te3,0.47
1893,LiBr,7.95
1894,CsGaS3,3.0
1895,Rh0.67S2,1.5
1896,Cd3P2,0.59
1897,RbAgF3,0.0
1898,YbGeRh,0.0
1899,USi3,0.0
1900,Li2MgIn,0.0
1901,ZrHCl,0.0
1902,SmSnTe2,0.52
1903,Rb8Ga8Si38,1.18
1904,PbI2,2.53
1905,Na2Te,2.3
1906,Li6FeNi9O20.2,0.0
1907,As2S3,2.43
1908,CdO,2.3
1909,Zn3As2,0.51
1910,Ga0.5As0.5Zn0.5Se0.5,1.52
1911,BaIn2S4,3.06
1912,Tl2Te3,0.7
1913,Pb0.94Se0.94Sn0.06Se0.06,0.19
1914,LiZnBO3,3.1
1915,Ba5V3O12F,3.85
1916,Re3F,0.0
1917,SmHoHg2,0.0
1918,U6Co,0.0
1919,HoAlB14,0.0
1920,Ag2P2PbO7.2,0.0
1921,PbS,0.31
1922,Bi2V2Se4O16,2.2
1923,BaGa2Se4,3.16
1924,Ba2YReO6.225,0.0
1925,Hf3P,0.0
1926,EuNi2As2,0.0
1927,ZnO,3.44
1928,Cu3VS4,1.0
1929,HoCd,0.0
1930,SnRh,0.0
1931,DyAgHg2,0.0
1932,Li2MgHg,0.0
1933,CsBi3Se5,0.43
1934,CdIO3Cl,4.3
1935,CsInTe2,2.16
1936,LuGaRh2,0.0
1937,FeOF,0.0
1938,SmCu2O4,0.0
1939,Cu2ZnSnSe4,1.44
1940,Eu3Sn,0.0
1941,BaTh3,0.0
1942,SmBiW2O9,3.39
1943,Ho2O3,5.42
1944,LiV2NiO6.15,0.0
1945,UO2,2.18
1946,Na8Cu5O10,0.0
1947,CsI,6.3
1948,YbLa5S8,0.0
1949,TlS2,1.8
1950,In0.3As0.3Ga0.7P0.7,2.05
1951,CeSbO3,0.0
1952,Cu0.3In1.7Se2.7,1.21
1953,TlSbS2,1.42
1954,LiTaO3,4.1
1955,K3LiNb6O15.7,0.0
1956,InMo3Se3,0.0
1957,Na2Cr7O14,0.0
1958,Sm2Fe17,0.0
1959,Ge5Te8As2,0.0
1960,ZnCu3P3O13.11,0.0
1961,InN,1.95
1962,ZnIn2S4,2.65
1963,TmBRh3,0.0
1964,La4FeSb2S10,1.0
1965,CdSnP2,1.16
1966,Li3Si3Ag2,0.0
1967,CePd5,0.0
1968,Mg5As,0.0
1969,DySn3,0.0
1970,CrSiCu2,0.0
1971,GeSe,1.18
1972,CaZnOS,3.7
1973,Ag3SbS3,2.2
1974,GdCd2,0.0
1975,ZnSnAs2,0.67
1976,PmCdPd2,0.0
1977,Ba3P3O10Cl,6.89
1978,Pb0.95Se0.95Ge0.05S0.05,0.29
1979,InAs,0.42
1980,SbPt3,0.0
1981,EuNi12B6,0.0
1982,GeS,1.74
1983,CdAs2,1.2
1984,Pb2O3,1.67
1985,LaMg(FeO3)2.31,0.0
1986,AgI,3.02
1987,Hg4As2UCl6,1.9
1988,Lu2CdIn,0.0
1989,Sb2S3,1.71
1990,Pb0.96TeTl0.04,0.57
1991,HfS3,2.85
1992,K2CsSb,1.0
1993,Ba2Cu5F14,0.0
1994,Sm2CuAs3O.62,0.0
1995,Ga0.95Sb0.95Hg0.05Te0.05,0.69
1996,In2P3B1O12,5.39
1997,LiGaSe2,3.13
1998,Cs39Cl6Ga53Se96,2.74
1999,BiI3,1.81
2000,CaI2,5.98
2001,WCl3,0.0
2002,UP2S7,1.41
2003,GaS,2.52
2004,PbTe,0.21
2005,HoN,1.88
2006,GdZn,0.0
2007,PtSb2,0.4
2008,ErCu,0.0
2009,Ge2Os,0.0
2010,RbInGeS4,3.1
2011,TaZrN3,1.72
2012,HoSb2,0.0
2013,BaZnOS,3.9
2014,BaTiO3,3.1
2015,CuGa0.4In1.6S3.5,1.55
2016,CaSe,5.0
2017,Ga0.25Al0.75As,2.42
2018,GaN,3.44
2019,ReSe2,0.99
2020,Cr2O3,3.4
2021,Cu2OF2,0.0
2022,Zn3As2,1.09
2023,AgW6Br14,0.0
2024,MnCoSi,0.0
2025,In0.3Ga0.7P,2.2
2026,YVSeO10,2.7
2027,DyGe2Ru2,0.0
2028,NdInCu,0.0
2029,RbSbO3,0.0
2030,Cu3HoSe3,0.16
2031,NiP2,0.5
2032,Sm2TlZn,0.0
2033,YNiSb,0.29
2034,CuCl,3.27
2035,As2Se3,1.85
2036,Pr3Al4Si6,0.0
2037,Ga1.001Sb0.999Te0.003,0.72
2038,Hg6.5As4CdCl6,1.86
2039,Sr2CoReO6.14,0.0
2040,Ni3SnN,0.0
2041,K8Zr6Se30,1.81
2042,Ce4Bi3,0.0
2043,Cu9Se4(Cl3O7)2.12,0.0
2044,YMgAl,0.0
2045,Nd2HfS5,0.7
2046,Cu25Se26,0.0
2047,Cd3P2,0.59
2048,ErMg2,0.0
2049,HgIn2S4,2.0
2050,Ba2Ce2O5,0.0
2051,Ge0.9Si0.1,0.8
2052,Mg2Pb,0.15
2053,La3GaGe0.5S7,2.54
2054,EuScO3,0.0
2055,CaSm2S4,2.05
2056,SbSi,1.9
2057,InP,1.45
2058,RuPS,1.4
2059,Ga2Te3,1.33
2060,MgFe4O8,0.0
2061,SbSI,2.02
2062,Ce4InSbSe9,1.69
2063,NbCl4O2,0.0
2064,KInS2,3.0
2065,Y4GaSbS9,2.06
2066,KCoO2,0.0
2067,TiFe2Sb,0.0
2068,HgIrO3,0.0
2069,GaSe,2.01
2070,Dy2Mo3O12,1.92
2071,CuGaSe2,1.7
2072,Ca11Bi10,0.0
2073,NiS2,0.64
2074,KRbBi8Se13,0.64
2075,Ga2O3,4.4
2076,SmCo3B2,0.0
2077,ZnIrO3,0.0
2078,Bi12Rh12O41,0.0
2079,LiGaTe2,2.31
2080,TlCl,3.2
2081,U2Zn17,0.0
2082,Li5Fe6(BO3)6.8,0.0
2083,Li0.5Pb1.75GeS4,1.95
2084,K3Nb2AsSe11,1.53
2085,PbS,0.38
2086,MoTe2,1.1
2087,Ag2O,1.4
2088,Na2BaSnSe4,2.46
2089,TlSe,0.96
2090,Ag0.4Cd0.5In2.2Te4,0.19
2091,CsInSnS4,2.9
2092,CdSiP2,2.25
2093,EuGe3Pt,0.0
2094,Ag2GeSe3,0.91
2095,LuScZn2,0.0
2096,AgGaGeS4,3.0
2097,TiSe,0.0
2098,AsSb,1.6
2099,Ga0.99As0.99Zn0.01Se0.01,1.39
2100,Tm2Ru2O7,0.0
2101,Dy2S3,3.0
2102,Bi2Te0.45Se2.55,0.2
2103,ZnSe,2.71
2104,MgIn3,0.0
2105,ZnGa2Se4,1.72
2106,As2O3,4.0
2107,Hf5Sn4,0.0
2108,Ba5CdGa6Se15,2.6
2109,Cs2Bi8.81La1.19S16,1.0
2110,Cs6Na2Zn4Ge42,0.3
2111,Cd4P2Br3,2.19
2112,OsP2,1.13
2113,Sr2V3Se5O18,2.47
2114,NaBiSe2,0.28
2115,Na2In5Au6,0.0
2116,ZrTi2O,0.0
2117,Te2Pd3,0.0
2118,CuGaS2,2.38
2119,Ag0.5Pb1.75GeS4,1.83
2120,KBiSiS4,2.25
2121,Sn0.5GaZn4.5O7,3.0
2122,RbBr,7.25
2123,Hf3Sb,0.0
2124,Bi2Te0.9Se2.1,0.28
2125,ZnSnAs2,0.9
2126,LiBePt2,0.0
2127,Lu4C7,0.0
2128,EuCl3O12,0.0
2129,Nd2O3,4.4
2130,EuCu2SnS4,1.85
2131,ZnIn2Se4,2.05
2132,Cs3As,0.6
2133,MgTe,3.6
2134,Se0.4Te0.6,0.7
2135,KH(CN2)3.2,0.0
2136,Pb0.999Sn0.001Te,0.18
2137,CuAlSe2,2.5
2138,Gd2Zn6Ge3,0.0
2139,EuVO4,3.44
2140,HfS2,2.9
2141,Cs2Mo15S19,0.0
2142,Pr2GeSe5,1.8
2143,LiBi4Ta3O12,3.5
2144,CaIn2Ir,0.0
2145,CsSmCdSe3,2.47
2146,Cu3YSe3,0.88
2147,Gd2O3,5.3
2148,Er3Te4,0.9
2149,Ho2B4C,0.0
2150,Pr2Te3,1.3
2151,Zn0.55S0.55Ga0.45P0.45,2.3
2152,Cs5BiP4Se12,1.85
2153,PbS,0.29
2154,TaTiFe2,0.0
2155,Tb2SbO2,0.0
2156,PbSe,0.17
2157,ThAl3,0.0
2158,CsSb,0.8
2159,Hf2MnIr,0.0
2160,Ta0.67Zr1.33O1.38N1.97,2.31
2161,K6Cd4Sn3Se13,2.33
2162,Cu0.4Ga1.6S2.6,2.5
2163,BaUSe3,1.0
2164,Bi9O7.5S6,1.27
2165,Yb2SrS4,0.0
2166,Ca2Os2O7,0.0
2167,Cu2ZnSiSe4,2.33
2168,EuSnO3,0.0
2169,Na3WO4Cl,4.99
2170,Bi2O5,0.0
2171,Pb0.9Se0.9Bi0.2Te0.3,0.25
2172,Cu2Se,1.1
2173,AlB2,0.0
2174,Tl3CuNb2Se12,0.8
2175,ThOS,2.22
2176,Mg2Si,2.27
2177,GdTe,1.3
2178,AlCu7O12,0.0
2179,Li3Mo2P5O18.2,0.0
2180,Sc11Al2Ge8,0.0
2181,Tb2GeS5,2.1
2182,CdIn2S4,2.7
2183,BaF2,9.2
2184,LiCu2Ge,0.0
2185,TlInSe2,1.07
2186,PtP2,0.8
2187,GaAs0.2P0.8,2.2
2188,Pr2Se3,1.9
2189,FePS,0.25
2190,Sr2V2Se3O15,2.96
2191,Pb0.9Se0.9Sn0.1Se0.1,0.24
2192,Pb0.92Se0.92Sn0.08Te0.08,0.22
2193,AlSb,1.8
2194,TeMoSe,0.0
2195,HoAlAu2,0.0
2196,Cs4GeP4Se12,2.0
2197,Tl2Te3,0.48
2198,Yb2KF7,0.0
2199,Bi1.6Te3Sb0.4,0.16
2200,CsYZnSe3,2.41
2201,Cu2MgGeS4,2.36
2202,In2Se3,1.18
2203,Pb4Ga5GeS12,2.35
2204,Ba12In4S19,2.56
2205,Zr5Al3,0.0
2206,Pr5Si4,0.0
2207,TlCl,3.2
2208,Bi25GaO39,2.99
2209,Pb0.93TeGa0.07,0.34
2210,EuSbO3,0.0
2211,K2La2Sb2S9,2.2
2212,SbI3,2.41
2213,Nd10OSe14,1.98
2214,Nb40N21O16,0.0
2215,CsMo3O9,0.0
2216,RuSbSe,0.9
2217,TiAuCl,0.0
2218,TlInTe2,0.62
2219,Na7Co2O6,0.5
2220,LaBeB3O7,5.65
2221,GdAs,0.63
2222,BRh2,0.0
2223,BaPdSe6,2.15
2224,Cu2GeSe3,0.85
2225,NaGe3P3,2.06
2226,Nb3Os,0.0
2227,PbMnIn2S5,1.45
2228,DyAs,1.0
2229,Li17Nb20O60,0.0
2230,ZnTe,2.37
2231,AgIn9Te14,1.5
2232,Mg2Sn,0.19
2233,Sr8Fe3N8,0.0
2234,Cs2Cd3B16O28,4.76
2235,TmCu2Ge2,0.0
2236,Pb0.7Ge0.3Se,0.4
2237,Ba4Ge3Se9Cl2,1.89
2238,NaLaS3,2.61
2239,Rb2TeBr6,2.14
2240,EuTb2Se4,2.0
2241,CaAl2Zn2,0.0
2242,Ce2Cu(NO)2.139,0.0
2243,K3Ta2AsSe11,1.45
2244,Cs3Sb2Br9,2.3
2245,NaFe2(SiO3)4.5,0.0
2246,Sn2S,0.95
2247,Ge0.9355Si0.0645,1.04
2248,Sr4Te3O8Cl4,4.0
2249,LiCdBO3,4.28
2250,Mg2V9O13,0.0
2251,Li3VOF5.1,0.0
2252,Hg0.01Cd0.99Se,0.29
2253,InBi2Se4Br,1.21
2254,Tm2ZnHg,0.0
2255,Zn0.65Hg0.35Se,1.0
2256,Hf54Os17,0.0
2257,TlBr,3.3
2258,Ba3Sn0.87Bi2.13Se8,0.79
2259,Nb2O5,3.08
2260,CuNbO3,2.0
2261,Mn11Si19,0.5
2262,LiInS2,3.59