id,composition,Eg
1151,CdSb,0.46
1152,ReSe2,1.15
1153,EuS,1.65
1154,Pb2BO3Cl,3.99
1155,Pb0.96TeIn0.04,0.37
1156,CsInSe2,2.81
1157,In0.6As0.6Ga0.4P0.4,1.25
1158,Ga0.5As0.5Zn0.5Se0.5,1.52
1159,Na2CsSb,0.8
1160,TlInS2,2.2
1161,ZnIn2Te4,1.87
1162,Ag3AsSe3,2.2
1163,K10Co4Sn4S17,1.8
1164,OsPS,1.4
1165,CuGa1.6In0.4S3.5,2.15
1166,Cu3SmS3,1.82
1167,ZnGeAs2,1.1
1168,InSb0.01As0.99,0.17
1169,Gd2Mo3O12,4.18
1170,PbBr2,3.5
1171,Ba2BiInS5,1.55
1172,BiFeSe3O9,2.54
1173,Cu2CdSnSe4,0.96
1174,Li3ScN2,2.9
1175,InBi2Se4Br,1.21
1176,GeS2,3.54
1177,Pb0.999TeIn0.001,0.3
1178,CuSbS2,1.38
1179,CaO,7.03
1180,LiMoIO6,2.8
1181,Hg0.9Cd0.1Se,1.32
1182,Pb0.8Ge0.2Se,0.35
1183,TlSbS2,1.42
1184,Cs2Hg3I8,2.56
1185,Ba2InSmSe5,2.22
1186,SbSeBr,1.87
1187,K2Al2B2O7,6.89
1188,PbTe,0.21
1189,CuInS2,1.54
1190,AlSb,1.32
1191,Zn0.9S0.9Ga0.1P0.1,2.8
1192,Ag2O,1.4
1193,Sb2Te3,0.3
1194,CsHgInS3,2.3
1195,Ge0.542Si0.458,2.24
1196,CuInTe2,0.89
1197,HgGa2Se4,1.95
1198,Sr3Ti2O7,3.26
1199,RuTe2,0.25
1200,CdTe,1.53
1201,CuInGeSe4,1.3
1202,GeTe2,0.3
1203,Zn3V2TeO10,2.96
1204,Zn3As2,0.51
1205,K2Hg3S1.03Se2.97,2.11
1206,NaSbP2S6,2.25
1207,InSb,0.24
1208,YNiSb,0.18
1209,NaAsSe2,1.57
1210,PbI2,2.41
1211,As2S3,2.1
1212,RbMn4Ga5Te12,1.53
1213,Cs2Hg5.75Cd0.25S7,1.66
1214,NiO,4
1215,CsI,6.4
1216,Se2B2O7,4.64
1217,Cd3P2,0.5
1218,SiTe2,1.85
1219,Cs2PdP2Se6,1.6
1220,Cu2SnSe3,0.7
1221,LaCuOTe,2.31
1222,BaSi2,1.3
1223,K2CeP2O8,2.46
1224,GaAs0.6P0.4,1.91
1225,Li2HgSnS4,2.32
1226,NaCl,8.5
1227,CdIn2S4,2.3
1228,Pb0.95Ge0.05Te,0.34
1229,InN,2.09
1230,KI,5.92
1231,As2Te3,1.62
1232,BSb,2.6
1233,CrO3,1.4
1234,CsBiSe2,1.07
1235,Mg3As2,2.2
1236,CsCu2SbS3,1.63
1237,AsI3,2.47
1238,Hg2Cl2,3.8
1239,Bi2Cu0.96Se3I,0.68
1240,CdS0.01Se0.99,1.68
1241,NaAsSe2,1.56
1242,TlSe,0.96
1243,Rb4Ag9Sb4S12,2
1244,AgIn9Te14,1.5
1245,Ba2SnSe4,1.9
1246,SnS,1.26
1247,BiOCl,3.46
1248,ZnO,3.44
1249,TiNiSb,0.42
1250,ZnS,3.67
1251,Cu0.01Ga1.99Se2.99,1.99
1252,Cu0.5In1.5Se2.5,1.24
1253,Na8Al8Si38,0.64
1254,AgI,2.92
1255,Cu0.3Ga1.7S2.7,2.6
1256,Ge2Sb2Te5,0.5
1257,CsPbPO4,4.39
1258,KH3Se2O6,4.9
1259,PdPAs,0.45
1260,K2Sm2Ti3O10,3.26
1261,Sn2WO5,2.6
1262,Pb0.95Se0.95Sn0.05Se0.05,0.19
1263,Ga2O3,4.4
1264,SnSe2,1.62
1265,Ga2O3,4.54
1266,RbBiS2,1.2
1267,NdB6,4.9
1268,GaAs0.5P0.5,2
1269,CsZn4In5Te12,1.61
1270,NiP2,0.3
1271,CsYbMnSe3,1.59
1272,Ba4AgGa5S12,2.52
1273,KInS2,3
1274,Ag2HgI4,2.47
1275,K10Zn4Sn4S17,3.1
1276,Gd1.87Lu2.13Se6,1.56
1277,Cs2SnP2Se6,2.06
1278,PdPS,1.4
1279,HgPS3,2.6
1280,AgInSe2,1.2
1281,CoTe1.88,0.2
1282,SrIr4In2Ge4,0.25
1283,NaSbF6,3.76
1284,CdIn8Te13,1.02
1285,Cu3GdTe3,0.52
1286,RbI,6.26
1287,Cu0.99In1.01Se2.01,1.08
1288,In0.5Ga0.5P,1.9
1289,Ge0.9Si0.1,0.8
1290,EuO,1.12
1291,TlGaSe2,1.65
1292,NaCl,8.4
1293,In4Se3,0.64
1294,CsErZnSe3,2.63
1295,InSe,1.3
1296,NaGaGe3Se8,2.35
1297,Bi3F3I4O13,3.7
1298,Pb0.94Sn0.06Se,0.22
1299,SnSe,0.9
1300,Cu3HoSe3,0.16
1301,RbInGeS4,3.1
1302,Cu2Se,1.1
1303,AgF,2.8
1304,KSbSe2,1.65
1305,Cu2Ga4Te7,1.18
1306,Sm2Sc3,2.3
1307,ZnO,3.25
1308,CdSnAs2,0.41
1309,Cd4As2I3,2.3
1310,WSe2,1.35
1311,Ba3B1.5S6Bi0.5,2.43
1312,Hg2Br2,2.6
1313,CdSb,0.42
1314,GaN,3.48
1315,BaSnO3,3.1
1316,Cs8Ga8Si38,1.14
1317,Ca5B3O9F,6.53
1318,BiOI,1.89
1319,PrO,0.55
1320,In6Se7,0.86
1321,SnS0.01Se0.99,0.95
1322,TlBr,3.12
1323,Hg6As4CdBr6,1.89
1324,YB66,0.8
1325,Bi3Ge3O10.5,3.3
1326,CrO2,0.23
1327,Pb0.98Se0.98Bi0.04Te0.06,0.28
1328,Cs3Bi,0.7
1329,V2O5,2.32
1330,GdB6,3.6
1331,La2S3,2.77
1332,Zn3As2,0.93
1333,Li4.5Mn0.5TeO6,1.97
1334,Rb2Te,4.5
1335,InSb0.4As0.6,0.1
1336,Ce3MoO7,2
1337,Pd3P2S8,2.12
1338,BaTiO3,3.1
1339,Cs2TiAg2S4,2.44
1340,InP,1.42
1341,Ga0.1As0.1Zn0.9Se0.9,2.34
1342,Zn3As2,0.96
1343,Ag0.4Cd0.2In2.4Te4,0.42
1344,PbS,0.44
1345,Y3GaS6,2.88
1346,Sc2O3,6.2
1347,Y6ZnSi2S14,2.38
1348,Tl2Cu2SnS4,1.4
1349,Ba3MgTa2O9,4.28
1350,Na3ZnB5O10,3.2
1351,LiBiS2,0.19
1352,GaAs,1.51
1353,KNbSe2O7,4
1354,NiP2,0.73
1355,ZnO,3.42
1356,GaSe,2.12
1357,CdGeAs2,1.1
1358,InS,2.07
1359,Nd2S3,2.65
1360,HfO2,5.55
1361,Rb2TiAg2S4,2.33
1362,AgInSe2,1.24
1363,La3InGe0.5S7,2.61
1364,Ba2InYSe5,2.31
1365,Pb0.8Se0.8Bi0.4Te0.6,0.22
1366,Pb6Sb6Se17,0.8
1367,Ba2GaBiSe5,2.21
1368,GaSe,2.1
1369,As2S3,2.8
1370,As2S3,2.57
1371,CdSe,1.87
1372,K2Cu2Sn2Se6,1.04
1373,ErN,3
1374,As2Se3,1.7
1375,TlCuCl3,2.98
1376,Er2Mo3O12,0.96
1377,Ba4Ge3Se9Cl2,1.89
1378,CuPbBiSe3,0.07
1379,Eu3As2,0.6
1380,HgCl2,4.45
1381,SrO,5.77
1382,Zn3As2,1
1383,TlSe,0.8
1384,AgInO2,4.2
1385,BaPdSe6,2.15
1386,AgS,1.3
1387,Cu3HoTe3,0.26
1388,ZnTe,2.37
1389,SbI3,2.49
1390,K4Ba2Nb4S22,1.77
1391,SnSi,0.59
1392,CoSbS,0.11
1393,InAs,0.41
1394,Pb0.999TeTl0.001,0.3
1395,Ge40.0Te5.3I8,0.8
1396,AlSb,1.68
1397,Ag3AsSe3,2.18
1398,Cs2Cd3Te4,2.48
1399,PdI2O6,1.31
1400,Ba3BSbS6,2.62
1401,Ba2GaNdSe5,2.18
1402,ZnGeP2,2
1403,K2CuGa3Se6,1.72
1404,CdSiAs2,1.62
1405,NaBiSe2,0.35
1406,Bi2Te2.1Se0.9,0.29
1407,Ta0.67Zr1.33O1.38N1.97,2.31
1408,Cd8B5O15F,3.14
1409,As2Te3,1.59
1410,Hg0.08Zn0.92Te,1.9
1411,TlHgInS3,1.74
1412,KTiPO5,3.54
1413,RbI,6.25
1414,GaS,2.59
1415,EuIn2Te4,1.22
1416,As2S3,2.37
1417,Tb2O3,3
1418,LiGaS2,4.15
1419,K2TiCu2S4,2.04
1420,KAu5PS8,2.14
1421,GaAs,1.51
1422,Tl4Ta2S11,1.26
1423,Er3SmSe6,2
1424,Pb0.6Ge0.4Te,0.51
1425,ZnS,3.7
1426,CrTe2,0.17
1427,CuCl,3.2
1428,PbS,0.28
1429,Bi2O3,2.86
1430,Cu0.9Ga1.1Se2.1,1.59
1431,CuFeTe2,0.16
1432,NdF3,6.15
1433,Pb0.85Se0.85Sn0.15Se0.15,0.22
1434,Hg0.4Cd0.6Se,0.7
1435,AgAsTe2,0.8
1436,SbSi,1.9
1437,GaAs,1.51
1438,Hg4As2CdI4,1.45
1439,Cu0.9In1.1Se2.1,1.06
1440,Cs4BiAs3Se7,1.02
1441,SrMgSnSe4,2
1442,Pb2BO4H,3.76
1443,K4Nb2S11,1.96
1444,LiAsSe2,1.11
1445,K2Sn3Sb2S10,2.3
1446,NaSbS2,1.48
1447,CuCl,3.28
1448,LiCa3As2H,1.4
1449,PbO2,1.4
1450,Pb0.8Sn0.2Se,0.06
1451,La2Se3,1.65
1452,ZnO,3.45
1453,CdS,2.42
1454,GeSn,0.8
1455,Bi1.6Te3Sb0.4,0.16
1456,GdN,1.54
1457,AgInS2,2
1458,Lu2CrS4,1.75
1459,MnF2,9.9
1460,CuGa2Se4,0.63
1461,La8Sb2S15,2.3
1462,Zn3Sb2,0.22
1463,NaCl,8.6
1464,Ag5IO6,1.4
1465,UY4O3S5,1.95
1466,Ta0.67Zr1.33O0.42N2.61,1.93
1467,InSe,1.26
1468,GeS,1.69
1469,Tl2GeTe3,0.37
1470,ZnGeP2,2.1
1471,Zn2LiGaO4,4
1472,BiIO3F2,3.97
1473,TlSbTe3,0.38
1474,Ba3B1.5S6Sb0.5,3.01
1475,GeSe2O6,5.31
1476,Pb0.87Sn0.13Se,0.02
1477,Cu3AsSe4,0.65
1478,AgTe,0.73
1479,Cd3Bi2,0.2
1480,RbBi3Se4Te,0.8
1481,DyAs,1
1482,Bi25TiO39,3.1
1483,Rb2TeBr6,2.14
1484,In2Se,0.69
1485,GeAs,1.45
1486,YVSeO10,2.7
1487,InSb,0.24
1488,KCu4AsS4,1.9
1489,K2ZnSn3S8,2.3
1490,B2O3,4.9
1491,As2S3,2.21
1492,PdS2,0.75
1493,GaS,2.59
1494,AgScO2,3.8
1495,ZnIn2S4,2.86
1496,CdSiP2,2.16
1497,CdGeAs2,0.53
1498,Gd2Mo3O12,4.06
1499,PbS,0.42
1500,AgGaTe2,1.1
1501,ScTiNbO6,3.58
1502,La3Sb0.33SiS7,1.92
1503,Cd4Sb2I3,1.83
1504,Ga2GeTe3,0.85
1505,Pb0.99Sn0.01Se,0.16
1506,GaAs0.15Sb0.85,1.1
1507,LiInS2,3.57
1508,Cu0.7In1.3Se2.3,1.1
1509,PbSe,0.15
1510,Ga0.95Sb0.95Cd0.05Te0.05,0.74
1511,Cu0.3In1.7Se2.7,1.21
1512,Cu0.15Ga1.85Se2.85,1.92
1513,GeO2,5.56
1514,CsYHgSe3,2.54
1515,Pr2Se3,1.8
1516,SiSe2,1.72
1517,Pb2N2SeO9,3.76
1518,Pb0.94Sn0.06Se,0.17
1519,Tl2BiP2S7,1.8
1520,SnS0.4Se0.6,0.98
1521,GeS,1.74
1522,Pb0.999Se0.999Sn0.001Se0.001,0.32
1523,In2Se2O7,2.97
1524,NH6PO4,6.81
1525,In2Se3,1
1526,SiSe2,1.73
1527,NaInSnS4,2.4
1528,Cs2TeBr6,2.12
1529,K0.6Cs0.4PSe6,2.1
1530,Ca2Ge,1
1531,Ba2ZnTe3,2.1
1532,Zn2In2S5,2.7
1533,CuGaO2,1.47
1534,Ni2InVO6,1.92
1535,PrB6,4.9
1536,Rb2Mo3Se3O16,3.1
1537,CdS,2.43
1538,RbInS2,3.3
1539,Ga1.001Sb0.999Se0.003,0.71
1540,BaGa4S7,3.54
1541,CuIn3Te5,1.2
1542,LiMgAs,0.7
1543,InSb,0.18
1544,Ba2ZnV2O8,3.48
1545,TlSe,0.57
1546,Bi2SI2O11,3.74
1547,Pb0.99Ge0.01Te,0.32
1548,ZrSe3,1.25
1549,ZnTe,2.26
1550,ZnSb,1.05
1551,Rb2AgPS4,2.6
1552,BaCu2SnSe4,0.48
1553,BiPO4,3.85
1554,Na2Se,2
1555,InAs,0.35
1556,La4FeSb2S10,1
1557,GdSb2BO8,3.48
1558,SbSeI,1.68
1559,SiSn,0.59
1560,Ba2Ga8SiS16,3.4
1561,PbS,0.37
1562,RbI,6.37
1563,Cu3AsS4,1.48
1564,Ag3SbS3,2.1
1565,K2Cu2Sn2S6,1.47
1566,Sb2Te3,0.35
1567,Zn0.8Hg0.2Se,1.4
1568,EuO,1.12
1569,Ag2V2I4O16,2.24
1571,HgO,2.48
1572,NaNb2PS10,1.72
1573,CuGa3Se5,1.75
1574,Zn2MoTeO7,4.1
1575,TlInS2,2.25
1576,ScTa2O5N,2.67
1577,AgInS2,1.88
1578,CdAs2,1.13
1579,Ag0.25Cd0.5In2.25Te4,0.39
1580,In6S7,0.95
1581,TbSb2BO8,3.53
1582,TlPrSe2,1.18
1583,BaGa2SnSe6,1.6
1584,GeSe2,2.3
1585,ZnO,3.44
1586,ZnTe,2.1
1587,In2Se3,1.38
1588,Ag2SnSe3,0.84
1589,AgGaSe2,1.3
1590,CdSnAs2,0.31
1591,InSb0.5As0.5,0.1
1592,B4C,1.64
1593,GdH2NO5,4.84
1594,Cu2GeSe3,0.85
1595,TlCl,3.23
1596,GaAs0.7Sb0.3,0.67
1597,PbI2,2.55
1598,ZnO,3.44
1599,GaN,3.48
1600,PdO,0.8
1601,Tl2TeS3,1.6
1602,AgFeTe2,0.58
1603,GeS2,3.43
1604,ZnS,3.82
1605,CaPr2S4,2.9
1606,Hg0.1Cd0.9Se,0.35
1607,InP,1.42
1608,InSb,0.23
1609,Ba2BiGaS5,2.38
1610,Cd3As2,0.19
1611,Bi24VO41,3.25
1612,V2O4,0.66
1613,SnS,1.3
1614,Pr1.29Lu0.71S3,1.38
1615,AgAsSe2,1.4
1616,TlInSe2,1.1
1617,InAs,0.33
1618,TaGaSe2,2.12
1619,AlN,6.03
1620,Sr8.007Ge2.043Bi7.949Se24,0.74
1621,Zr3O,0.2
1622,In0.4As0.4Ga0.6P0.6,1.85
1623,TlCr5S8,1.01
1624,Cu3TbTe3,0.46
1625,Na2CdGe2S6,2.57
1626,La2Ga2GeS8,2.78
1627,CsLuCoS3,1.18
1628,La2MoO5,0.49
1629,Ba7B3O9F5,4.94
1630,Ag2GeSe3,0.9
1631,In2Se,0.65
1632,Ge0.4Si0.6,0.94
1633,CdIn2Te4,1.17
1634,BaTaO2N,1.78
1635,SnS0.25Se0.75,0.99
1636,Ag3AsS3,1.98
1637,Ge0.838Si0.162,1.32
1638,DyPO4,6.38
1639,HoIn3S6,1.23
1640,Ag2S,1.23
1641,PbTe,0.36
1642,Hg0.99Cd0.01Se,1.72
1643,PbTe0.99Se0.01,0.3
1644,GaBi,0.1
1645,PrTe2,1.29
1646,CsInGeSe4,2.32
1647,ZnSe,2.82
1648,RbNb4Br11,0.46
1649,CuP2,1.45
1650,SnSe,0.95
1651,PbSe0.95S0.05,0.26
1652,CsI,6.37
1653,K3Ti2P5S18,1.61
1654,Ba3FeS4Br,1.65
1655,CdP4,1.15
1656,PrIn3S6,1.14
1657,SiAs2,0.88
1658,ZnIn2Te4,1.8
1659,Eu3Sb4Se9,1.08
1660,MgGeN2,4.2
1661,Ca4Bi6O13,2.76
1662,PrCuOS,3.03
1663,Cu0.05Ga1.95S2.95,2.64
1664,H6PtI6O20,2.12
1665,TlBr,3.3
1666,Hg0.77Cd0.23Te,0.12
1667,PbTe,0.3
1668,Cu2WSe4,1.65
1669,SnTe,0.3
1670,Li2In2SiSe6,2.54
1671,In0.3P0.3Ga0.7As0.7,1.67
1672,GaAs0.2P0.8,2.2
1673,RbCd4In5Se12,1.57
1674,Sm3Te4,0.51
1675,YbSb4Te7,0.22
1676,CsLiB6O10,6.89
1677,DyN,2.1
1678,Li6Mo6Se6O33,3.3
1679,Zn0.85S0.85Ga0.15P0.15,2.4
1680,K8Ce2I18O53,2.34
1681,Rb3Al3Ge7S20,3.1
1682,Ba3Er2P4S16,3.3
1683,Li2ZnGeSe4,1.86
1684,K2Te,1.9
1685,CaO,6.93
1686,PbBiO2Br,2.3
1687,Tl2GeTe3,0.36
1688,Bi12TiO20,3.09
1689,WSe2,1.57
1690,PrLuSe3,1.56
1691,BP,4.2
1692,KSb5S8,1.82
1693,Ga1.02Sb0.98Te0.06,0.68
1694,VO2,0.66
1695,GdTe,1.3
1696,Pb0.59Ge0.41Te,0.49
1697,ZnSe,2.83
1698,CuZn2InTe4,1.05
1699,Cs2Al2B2O7,4.13
1700,Ba8Hg4S5Se7,1.98
1701,GaAs,1.44
1702,Pb0.9Se0.9Sn0.1Se0.1,0.24
1703,CdSb,0.47
1704,La2O2ZnSe2,3.4
1705,AgFeSe2,0.23
1706,CuBr,3.07
1707,GaSe,2.12
1708,TlPSe2,0.5
1709,In0.97As0.97Cd0.03Te0.03,0.71
1710,WO3,2.7
1711,Hg2Cl2,3.5
1712,GaAs,1.51
1713,Sb2S3,1.69
1714,K2Ag3Sb3S7,2.2
1715,AgGaS2,2.73
1716,InS,2.45
1717,Bi1.98Te3Sb0.02,0.14
1718,K2ReH9,5.71
1719,TlPSe2,0.6
1720,AgGaSe2,1.66
1721,Eu3Se4,0.58
1722,Ge0.999Si0.001,0.65
1723,Hg2Cu3Te6O16,2.56
1724,Ag8SnSe6,0.71
1725,MgO,7.67
1726,Bi2AsO4Cl,3.43
1727,Cs2TeI6,1.5
1728,Ag2GeS3,1.98
1729,ZnSnAs2,0.9
1730,Cd4YB3O10,3.78
1731,LiZnBO3,3.1
1732,OsP4,0.4
1733,AgSbS2,1.88
1734,TiTe2,1
1735,Pb2SbS2I3,2
1736,Cs3Bi2Br9,2.5
1737,La3Mg0.5SnS14,1.71
1738,ZnIn2S4,2.85
1739,CdS,2.6
1740,TlBiTe2,0.12
1741,Sc2O3,6
1742,InSe,1.12
1743,GaSb,0.73
1744,BaGa2SiSe6,2.88
1745,Ba2InGdSe5,2.24
1746,Cu3Ta7O19,2.47
1747,GaP,2.77
1748,PbTe,0.19
1749,PbSe,0.14
1750,K2CdP2Se6,2.58
1751,K1.83Cd1.83Bi2.17S6,1.37
1752,In4Te3,0.42
1753,Ag3AsSe3,1.86
1754,CsCd4In5Te12,1.42
1755,Ce4Ge3S12,2.3
1756,Tl2Hg3S4,2.05
1757,CuGa3Te5,1.09
1758,CuPbBiS3,0.12
1759,KBi3S5,1.21
1760,CsCaBO3,4.2
1761,Hg0.65Cd0.35Te,0.28
1762,TlGaTe2,1.8
1763,Cu3GdS3,1.62
1764,Cu3TmTe3,0.14
1765,LiBi3O4Cl2,3.35
1766,As2Se3,1.81
1767,TlCl,3.46
1768,KSi2P3,1.72
1769,NaNO2,3.13
1770,NaBiS2,0.42
1771,AgSbSe2,0.67
1772,La2YbCuS5,1.45
1773,In0.1P0.1Ga0.9As0.9,1.6
1774,CdSe,1.82
1775,Mg2Sn,0.14
1776,Ga0.28In0.72As,0.55
1777,ZnAs2,0.9
1778,Ag7AsSe6,1
1779,Ag2CdGeS4,2.32
1780,InP,1.28
1781,AgLi0.33Ti0.67O2,2.7
1782,Hg0.06Zn0.94Te,2.03
1783,YbGa2Se4,1.8
1784,Ca2SmTaO6,3.45
1785,Pb0.8Sn0.2Te,0.11
1786,Ba4B11O20F,7.1
1787,GaSe,2.11
1788,In2O3,2.8
1789,CrSb2,0.14
1790,ZnIn2S4,2.5
1791,Na2Nb4Se4O19,3.56
1792,Cd3As2,0.12
1793,Bi2Te1.2Se1.8,0.28
1794,Cs2B4SiO9,6.53
1795,Cs10Cd4Sn4S17,3.16
1796,TlInS2,2.52
1797,KIO3,3.71
1798,Rb2Hg3Ge2S8,2.8
1799,Rb2TeI6,1.4
1800,SbSI,1.96
1801,GeSi,0.88
1802,Cs5P5Se12,2.17
1803,NaAsS2,2.23
1804,Ho2GeS5,2.5
1805,La2Se3,1.7
1806,TaGaS2,3.4
1807,MnP4,0.28
1808,CdSe,1.82
1809,K10Zn4Ge4S17,3.34
1810,YbS,0.98
1811,Tl2Au2Sn2Se6,1.2
1812,Cs2Bi2Cd2S5,1.7
1813,LiInI4O12,4.27
1814,TeSe3,1.87
1815,Cr3Se4,1.59
1816,Ga0.65Al0.35As,2
1817,K2Bi8Se13,0.47
1818,Zn6S5Cl2,2.71
1819,CuInSe2,0.8
1820,CuInTe2,0.88
1821,CsCl,7.8
1822,Pb0.99Sn0.01Se,0.22
1823,Pb0.999Se0.999Bi0.002Te0.003,0.79
1824,Ag2O,1.57
1825,Pb3B3O10N,3.64
1826,MnVTe2O8,1.9
1827,Cd0.99Te0.99Al0.01Sb0.01,1.6
1828,KTbSe4,1.65
1829,GaAs,1.42
1830,ZnAs2,1.2
1831,SrBiO2Cl,3.52
1832,FeSi2,1
1833,Ho2Mo3O12,1.07
1834,K2SmP2S7,2.59
1835,K10Zn4Sn4S17,3.2
1836,CdS,2.58
1837,InSb,0.23
1838,CdS,2.52
1839,AlSb,1.7
1840,Li0.2Na0.8AsSe2,1.57
1841,Mg2Sn,0.35
1842,Ba5V3O12F,3.85
1843,LiI,6
1844,NaCd4P3,1.1
1845,AlSb,2.22
1846,AlSb,1.49
1847,EuSb2Se4,0.95
1848,Pb0.93TeIn0.07,0.32
1849,ZnMoSb2O7,3.3
1850,AsSeI,1.76
1851,InS,2.06
1852,Pb0.999Sn0.001Te,0.21
1853,In0.94As0.94Cd0.06Te0.06,0.68
1854,TlN,1.4
1855,NaInI4O12,4.25
1856,ZnSb,1.09
1857,AgAlO2,3.6
1858,KF,10.3
1859,PbSe0.9S0.1,0.27
1860,AgAlTe2,1.9
1861,Ba2AgInS4,2.32
1862,Sb2Se3,1
1863,PbTe,0.29
1864,PtPAs,0.4
1865,Tl2CeP2S7,2.4
1866,LiPbSb3S6,1.6
1867,Cd2V2Te2O11,2.48
1868,TlCl,3.8
1869,As2S3,2.45
1870,SnGa4Se7,2.55
1871,Ho2O3,5.42
1872,Cd3P2,0.59
1873,Ba2GaSbTe5,1.66
1874,Hg0.7Cd0.3Se,1.1
1875,PbSe,0.26
1876,PbS,0.6
1877,PbI2,2.54
1878,GaAs,1.48
1879,InP,1.41
1880,In0.9Al0.1P,1.5
1881,Na3Sn2F6Cl,3.88
1882,SnS,1.22
1883,CdS,2.53
1884,ZnO,3.35
1885,K5In3P6Se19,2.2
1886,SnI4,2.38
1887,H2Ti6O13,3.4
1888,Li2B12Si2,2.27
1889,PbSb2Se4,1.8
1890,PdS,0.5
1891,Cd0.9Te0.9Al0.1Sb0.1,1.36
1892,KAuI4O12,2.75
1893,CsCl,8.1
1894,Ba3Tb2P4S16,3.37
1895,KBiSiS4,2.25
1896,Ba4Si3Se9Cl2,1.76
1897,Al2Te3,2.2
1898,FeIn2Se4,1.15
1899,CsNbSe2O7,4.2
1900,FeSc2,0.77
1901,Ga0.99Sb0.99Cd0.01Te0.01,0.72
1902,Cs3Nb2AsSe11,1.35
1903,K3Ta2AsS11,2.21
1904,GaSb,0.81
1905,CuGaGeSe4,1.38
1906,Ba5Ga6SnP12,1.21
1907,DyIn3S6,1.22
1908,InP,1.41
1909,Pb4V2Se6O21,3.37
1910,EuGa2S4,2.25
1911,PbMnIn2S5,1.45
1912,ZnTe,2.28
1913,PbCdP4O12,4.85
1914,Mg2Pb,0.15
1915,Na2CdSnS4,2.52
1916,LiCsCO3,6.19
1917,ThOSe,1.65
1918,PbTe,0.19
1919,SbI3,2.22
1920,CdIn2S4,2
1921,HgSe,0.24
1922,Tl3CuNb2Se12,0.8
1923,YH2NO5,4.83
1924,Mg3P2,1.4
1925,Zn0.4Hg0.6Se,0.42
1926,InSb,0.27
1927,Rb3Sb2I9,1.94
1928,In0.6Al0.4P,2.12
1929,Ba4Sb3S8Cl,2.09
1930,Li2CdGe,0.99
1931,ZnSiP2,2.07
1932,Bi2O3,2.91
1933,CdTe,1.45
1934,In6Se7,0.72
1935,BaTiO3,3.04
1936,NaInS2,1.9
1937,Bi14.7In11.3S38,1.45
1938,CdGa2Se4,2.48
1939,Bi2S3,1.45
1940,Cs2CdP2Se6,2.63
1941,EuTe,1.96
1942,Pb0.93TeTl0.07,0.54
1943,ErBiW2O9,3.26
1944,Cu2Se,1.29
1945,LiAsSe2,1.5
1946,LiGaGe2Se6,2.64
1947,Eu3In2P4,0.45
1948,GdAs,0.63
1949,CsGaS3,3
1950,AsNMg3,1.33
1951,Ba2InErSe5,2.29
1952,CsPSe6,1.9
1953,Sb2Se3,1.11
1954,BiSCl,1.89
1955,Hg0.63Cd0.37Te,0.35
1956,CdS0.8Se0.2,2.23
1957,ZnTe,2.35
1958,Gd2S3,2.55
1959,Na2TeS3,2.35
1960,AgPbBiS3,1.2
1961,Hg4As2ZrCl6,2.48
1962,BaBiO2Cl,3.71
1963,CdSnAs2,0.4
1964,CdGeAs2,0.85
1965,RbYbZnSe3,2.07
1966,CdGeAs2,0.72
1967,Cd4As2Br3,1.78
1968,HgIn2Te4,0.86
1969,NaInTe2,1.6
1970,FePS,0.25
1971,PtSb2,0.06
1972,Tm2O3,4.53
1973,PtAs2,0.8
1974,K1.46Sn3.09Bi7.45Se15,0.39
1975,CdSiAs2,1.52
1976,NaBa2Cu3S5,0.45
1977,GaN,3.39
1978,RuS2,1.8
1979,KEuAsS4,1.89
1980,Pb0.61Ge0.39Te,0.56
1981,TlSe,0.65
1982,Cu3YbSe3,0.2
1983,Pb0.96TeTl0.04,0.57
1984,Pr2Se3,1.9
1985,Li2FeSnS4,1.86
1986,InAs,0.47
1987,PbGa2Se4,1.83
1988,Mg2Pb,0.04
1989,Ba2B6O11,5.17
1990,As2B12,1.51
1991,TlAsS2,2.22
1992,InSe,1.25
1993,PbO2,1.5
1994,SeS,1.9
1995,Pb0.99TeGa0.01,0.42
1996,BaRh2Ge4Se6,1.09
1997,CsGeI3,1.6
1998,RbBiS2,1.36
1999,Rb1.45Pb3.1Sb7.45Se15,0.45
2000,SmTe,0.62
2001,MgSiN2,4.05
2002,CoSb3,0.5
2003,MgTe,3.6
2004,Ba2InDySe5,2.27
2005,Ba4AgInSe6,2.41
2006,KH3Se2O6,4.88
2007,ZnTe,2.3
2008,PdPSe,0.15
2009,B2O3,4.89
2010,BiFSeO3,3.83
2011,KCl,8.5
2012,Pb0.9Sn0.1Te,0.16
2013,ZnIn2Se4,1.82
2014,Ag2ZnSiS4,3.28
2015,Cd3As2,0.43
2016,Bi2Te3,0.25
2017,CdSe,1.84
2018,MoO3,3.66
2019,Zn2In2S5,2.65
2020,K8Zr6Se30,1.81
2021,PbO2,1.7
2022,Si2Te3,2.18
2023,InP,1.35
2024,LaVI5O16,3.58
2025,KBiS2,0.9
2026,CdSe,1.7
2027,BAs,1.45
2028,CdSb2Se3Br2,1.4
2029,La2O2FeSe2,0.7
2030,BaZn2As2,0.23
2031,ZnSnAs2,0.67
2032,YbSb2S4,1.12
2033,HgTe,0.15
2034,CdTe,1.56
2035,AgCl,5.13
2036,CuInSe2,1.01
2037,TlSbSe2,0.82
2038,GeS,1.59
2039,Th2GeSe2,1.98
2040,Rb2Cu2Sb2S5,1.6
2041,CuGaS2,2.43
2042,Ba1.88Ta15O32,0.13
2043,Cs6Na2Zn4Ge42,0.3
2044,Cu0.35Ga1.65S2.65,2.53
2045,Li4.5Ga0.5TeO6,4.99
2046,KGaSnSe4,1.73
2047,AlN,6.09
2048,Cu0.95In1.05Se2.05,1.07
2049,Cu2Te,1.08
2050,CdIn2Se4,1.45
2051,Cu2SnSe3,0.83
2052,Hg0.8Zn0.2Te,0.08
2053,BaSe,3.6
2054,Zn0.3S0.3Ga0.7P0.7,2.3
2055,TeI4,1.1
2056,KSbS2O8,4.64
2057,CdS0.99Se0.01,2.4
2058,RbCl,8.29
2059,Ba2InNdTe5,1.37
2060,Ba2GaSmSe5,2.27
2061,ZnI2,4.53
2062,K2CuNbSe4,2.14
2063,InBi2S4Br,1.5
2064,Ga0.01P0.01Zn0.99Se0.99,2.6
2065,TiS3,0.9
2066,ZnSe,2.8
2067,Hg2I2Te2,1.85
2068,SbSI,1.92
2069,Ba3Ta2Se9,1.6
2070,ZnSnAs2,0.66
2071,Cs2MgSn3Se8,1.92
2072,Ce10OSe14,1.93
2073,K2P2Se6,2.08
2074,EuSb4Te7,0.54
2075,CsAgSb4S7,2.04
2076,WSe2,1.49
2077,TlSe,0.79
2078,Ca3Sb2,1.4
2079,TlBr,3.07
2080,Na8CsB21O36,4.67
2081,Cu2P2S6,2.2
2082,Ag3AsS3,2.2
2083,SrTe,3.77
2084,TlBr,2.64
2085,ZrNiSb,0.55
2086,Mg2Sn,0.34
2087,PtS2,0.75
2088,CeFMoO4,2.52
2089,InSb,0.24
2090,Rh0.67S2,1.5
2091,Nd4Ge3S12,2.62
2092,GdB66,1.27
2093,InP,1.42
2094,CuNb3O8,1.47
2095,BaGa2SnSe6,1.95
2096,Pb0.92Sn0.08Te,0.13
2097,Cs2HgI2Cl2,2.15
2098,PbTe,0.25
2099,ZnS,3.66
2100,Ge0.891Si0.109,1.13
2101,Ba2GaSbSe5,2.51
2102,La4InSbSe9,1.76
2103,AgAlSe2,2.55
2104,Pb0.999Sn0.001Te,0.23
2105,BaF2,9.2
2106,InAs,0.42
2107,Ge0.8Si0.2,0.86
2108,GaSe,2.13
2109,InS,1.8
2110,Ga0.8In0.2As,1.07
2111,YbS,1.33
2112,TlCu3Lu2Se5,2.12
2113,GaTe,1.67
2114,LiF,11.7
2115,Cu0.99Ga1.01Se2.01,1.59
2116,Gd3.04Sc0.96S6,1.5
2117,Pb0.999TeGa0.001,0.3
2118,CdTe,1.58
2119,CdSiP2,2.25
2120,Ba2ScTaO6,4.19
2121,ZnSnSb2,0.4
2122,La2MnNiO6,1.2
2123,ZnIn2S4,2.7
2124,TlPS2,1.6
2125,Mg2Sn,0.31
2126,Li2ZnSnSe4,1.87
2127,ZnAs2,1.3
2128,TlInSe2,1.14
2129,ZnSnSb2,0.3
2130,InP,1.35
2131,RbH3Se2O6,4.84
2132,Pb0.83Sn0.17Se,0.04
2133,CdTe,1.6
2134,Ga2Te3,1.32
2135,Ba2InErTe5,1.35
2136,CuI,3.12
2137,SnS0.8Se0.2,1.07
2138,Ga2GeTe3,0.84
2139,Ge0.92Si0.08,0.72
2140,Ge0.93Si0.07,1.04
2141,Er2Se3,1.66
2142,Bi2I4O13,3.3
2143,NaGe3P3,2.06
2144,K2ZnSn2Se6,1.71
2145,PtSe2,0.1
2146,GeS,1.74
2147,Cu2ZnSnTe4,1.39
2148,AlVTe2O8,2.9
2149,PtP2,0.8
2150,AgAlTe2,1.8
2151,Bi3In4S10,1.42
2152,NaI,6
2153,AlP,2.51
2154,Ag2.7Ba6Sn4.3S16,1.38
2155,SnGeS3,2.23
2156,CaSm2S4,2.05
2157,K8Al8Si38,1.4
2158,BiSI,1.56
2159,Ce2YbCuS5,1.37
2160,Cu2O,2.59
2161,PbCl2,3.82
2162,CdGa2Se4,2.2
2163,BaClBF4,6.89
2164,Sn2S,0.95
2165,CdSb,0.43
2166,Pb0.995TeTl0.005,0.48
2167,GaAs0.99Sb0.01,0.7
2168,Cs2Te,3.5
2169,Th2Se5,0.37
2170,Fe2TiSi,0.4
2171,Hg0.1Zn0.9Te,1.74
2172,PbGeS3,2.4
2173,Na2KSb,1
2174,Mn2.04Gd1.47In0.49S5,1.75
2175,KAg2SbS4,2.2
2176,TlCl,3.23
2177,InSe,1.29
2178,Cs2CuNbSe4,2.19
2179,ZnIn2S4,2.9
2180,GaSb,0.67
2181,CuAlSe2,2.5
2182,La3CuGaSe7,1.36
2183,Cu2CdGeSe4,1.2
2184,Ba8Al10B12O41,3.1
2185,Bi12SiO20,3.2
2186,Ga2Te3O9,4.15
2187,HfS3,2.8
2188,Pb0.95Sn0.05Se,0.12
2189,InP,1.35
2190,KInSe2,2.68
2191,ZnO,3.3
2192,BiZn2VO6,2.4
2193,Hg0.3Cd0.7Se,0.55
2194,TaGaSe2,2.03
2195,KFe2BiO5,1.76
2196,Ga2Te3,1.33
2197,Cs2Cd3B16O28,4.76
2198,TlInTe2,0.68
2199,CuCl,3.22
2200,HfS2,2.9
2201,Fe4I3O24H15,2.3
2202,Cu0.35Ga1.65Se2.65,1.81
2203,KIO3,3.87
2204,K2AgSnSe4,1.8
2205,SmTe,0.35
2206,SmB66,0.8
2207,Ag3AsSe3,2.1
2208,Pr2Te3,1.16
2209,RbCl,8.3
2210,CdSe,1.75
2211,CsSbS2,2.8
2212,GaAs,1.4
2213,CdSe,1.74
2214,Li6Al2Te8O22,3.63
2215,Rb3Bi2Br9,2.62
2216,SnS,1.25
2217,Pr10OSe14,1.89
2218,EuS,1.65
2219,CuInSe2,0.92
2220,CuGaSe2,1.68
2221,Ag2SnS3,1.37
2222,BaTe,3.4
2223,Pb2B3O7.5H2,4.42
2224,YbSb2Te4,0.34
2225,Cs2Zn3Se4O12,4.3
2226,CeScO3,3.2
2227,SnSe,0.95
2228,Ag3AsS3,2.1
2229,Cu3AsSe4,0.88
2230,AlSb,1.8
2231,ZnTe,2.39
2232,Tl2TeI6,1.47
2233,AlB12,2.2
2234,Zn0.9Hg0.1Se,1.75
2235,ZnIn2S4,2.65
2236,Cd4As2Br3,1.93
2237,PbBr2,3.2
2238,AlB12,1.9
2239,Rh0.67Se2,0.7