task_id,pretty_formula,band_gap
mp-645938,Li5VP2O9,0.0034999999999998366
mp-646116,Na3MgC2BrO6,3.8547000000000002
mp-646426,U2InPd2,0.0
mp-646450,TbCoSn,0.0
mp-646507,Hf2Ni2Sn,0.0
mp-646733,SmInPt,0.0
mp-646750,Y5CuPb3,0.0
mp-647247,Er2Ga10Os3,0.0
mp-653855,Pr3PtI3,0.0
mp-662529,LaFe9Si4,0.0
mp-667273,C,1.0075
mp-695799,KP(HO2)2,5.333
mp-696804,RbHS,3.0784000000000002
mp-753677,Li3BiS3,2.558
mp-753689,Ba2Nb8O11,0.0
mp-753737,Li3CuS2,1.9809999999999999
mp-753741,Li3CuS2,1.9031000000000002
mp-753747,Ta3O7F,2.2236000000000002
mp-753833,Li2CrS4,0.0
mp-753881,LiAg2F6,0.0
mp-753901,Er2CuO4,0.0
mp-753912,CaTb2O4,3.1189999999999998
mp-753957,Ce4ThO8,0.0
mp-753966,Li6CrS4,0.0
mp-753995,YTmO3,4.582000000000001
mp-754005,Mg(CO2)2,3.4503999999999997
mp-754008,BaCuO2,0.0
mp-754011,Li(BiO2)3,0.0
mp-754085,Li2BiS2,0.0
mp-754086,Li2CuS2,0.0
mp-754092,ScTiO3,0.0
mp-754107,Y(BiO2)3,2.038
mp-754173,Sm2Cu2O5,0.0
mp-754210,Li6FeS4,0.0
mp-754223,Ta2CuO6,0.0
mp-754227,Li8NbS6,0.0
mp-754231,LuTiO3,0.0
mp-754263,Ho2CuO4,0.0
mp-754338,Ag2O,0.0
mp-754358,ZnSeO4,1.8188999999999997
mp-754359,Y6TeO12,2.7253999999999996
mp-754364,Y2CuO4,0.0
mp-754368,NaSbO2,1.4609999999999999
mp-754429,CaTm2O4,3.3400999999999996
mp-754474,USiS,0.0
mp-754480,GdYO2,0.0
mp-754483,Na3(CuO2)2,0.0
mp-754502,SmYO2,0.0
mp-754503,ZrBrO,0.0
mp-754512,Ge11N11O5,0.0
mp-754515,BaMgGe,0.0
mp-754516,LiNiP,0.0
mp-754538,HgPtO2,0.0
mp-754542,LiVS2,0.0
mp-754553,Zn3N2,0.0
mp-754588,ZrBiO4,0.0
mp-754614,LuNbO4,3.2765999999999997
mp-757715,Tb(BiO2)3,2.651
mp-757794,Li3HfO3,0.0
mp-757872,Li2Ag3F6,0.19779999999999998
mp-761472,Co2CuO4,0.0
mp-761487,Li3Cr(PO4)2,2.8493999999999993
mp-761501,Mn2CoO6,0.0
mp-761526,FeCoO4,0.0
mp-761530,Fe(CoO3)2,0.0
mp-761563,Mn2FeO3,0.11319999999999997
mp-761575,Be(CoO2)2,0.0
mp-761592,Li3Fe2CoO6,0.43059999999999965
mp-761615,Li2Ti(CoO3)2,0.9107000000000003
mp-761633,Li3Mn(CoO3)2,0.005499999999999616
mp-761650,Li2Fe(CoO3)2,0.0
mp-761651,Li2Cr(CoO3)2,0.0
mp-762989,Mn2O3F,0.0
mp-762993,Fe2O3F,0.0
mp-763001,Fe2O3F,0.0
mp-763008,Mn2O3F,0.0
mp-763017,Fe2O3F,0.0
mp-763033,Li2Fe3CoO8,0.0
mp-763041,Fe2O3F,0.0
mp-763052,Fe2OF3,0.9197999999999997
mp-763073,Fe4O7F,0.0
mp-763090,Co2O3F,0.0
mp-764562,Na2FeO3,0.0
mp-764568,Mn2O3F,0.0
mp-764631,Mn4O3F5,0.0
mp-764638,Li2FeO3,0.0
mp-764640,NaNi2O3,0.0
mp-765157,LiVF3,2.4259999999999997
mp-768014,Mn2OF3,0.0
mp-768015,LiMnCoO4,0.0
mp-768018,Li2Ti4VO8,0.0
mp-768028,Li3Mn2SnO6,0.0
mp-768030,FeOF,1.7423999999999997
mp-768037,VOF,1.5798999999999999
mp-768048,Li4VCr3O8,1.9196999999999997
mp-768052,LiVCoO4,0.0
mp-768068,Li2MnFe3O8,0.0
mp-768069,MnCo3O8,1.1944000000000001
mp-768110,Li2Ti3CoO8,2.4415999999999998
mp-768145,DyHoO3,3.0511999999999997
mp-768149,DyInO3,1.9870999999999999
mp-768171,Li8SbS6,0.0
mp-768242,PtO3,0.0
mp-768267,HoInO3,1.9681000000000002
mp-768347,Li8NbS6,0.0
mp-768368,K4I2O,1.2568000000000001
mp-768400,Li8FeS6,0.0
mp-768409,TbTiO3,0.0
mp-768419,La(ClO4)3,3.9271000000000003
mp-768450,Tm3Sb5O12,3.1088999999999998
mp-768469,TmGaO3,2.9219999999999997
mp-768505,LuGaO3,2.8827999999999996
mp-771085,Li3Co4NiO8,0.0
mp-771100,Li3Ti(NiO2)4,0.0
mp-771101,Li3V(CoO2)4,0.0
mp-771107,Li3Ni4SnO8,0.0
mp-771108,Li3V(FeO2)4,0.10720000000000063
mp-771114,Li3Mn(NiO2)4,0.0
mp-771131,NdZrO3,0.0
mp-771150,Na6Cu2P(CO4)4,0.0
mp-771181,Li2Fe3CuO8,0.0
mp-771199,V3FeO8,0.39019999999999966
mp-771220,Li3Ti(CoO3)2,0.0
mp-771257,MnTlO3,0.0
mp-771724,Li3Fe2NiO6,0.0
mp-771729,Li4Mn3NbO8,0.0
mp-771745,Li3Mn3O8,0.0
mp-771783,Li3Co(NiO3)2,0.0
mp-771785,Li3Co(NiO2)4,0.0
mp-771806,Li2Fe(NiO3)2,0.0
mp-771808,Li2Fe2SnO6,1.9884999999999997
mp-771832,Li2Ti3SnO8,0.0
mp-771842,Li3Cr2NiO6,0.0
mp-771845,Li3Mn3SbO8,0.0
mp-771851,Li3Mn3TeO8,0.0
mp-771855,CoTeO4,0.9034999999999997
mp-771857,LiTiVO5,1.8191000000000002
mp-771858,LiMnO2,0.0
mp-771861,LiNiSbO4,1.5918999999999999
mp-771867,Ti3VO8,1.5775000000000001
mp-771904,Li6Mn2P(CO4)4,0.0
mp-771915,Li3Mn3WO8,0.0
mp-771942,Li3Mn5O8,0.0
mp-771989,Mn3NbO8,0.0
mp-771991,Li6NiO4,2.8594999999999997
mp-771994,FeCo5O12,0.0
mp-774239,Li(CoO2)2,0.0
mp-774337,Li3Ti2FeO6,0.0
mp-774353,Li3Ti(NiO3)2,0.0
mp-776054,Li2MnCuO4,0.0
mp-776082,Ti3NbO8,0.0
mp-776112,Li2Fe3NiO8,0.0
mp-776166,AgPdO3,0.0
mp-776167,CeAlO3,0.0
mp-776170,LiTi2O4,0.0
mp-776215,Li2Ti3NbO8,0.0
mp-776217,MnV3O8,0.0
mp-776218,LiV2O4,0.0
mp-776233,Li2Fe3SbO8,1.3362000000000003
mp-776264,LiFeF4,3.2363999999999997
mp-776319,LiNbCuO4,0.10179999999999989
mp-776320,CuAsO3,0.0
mp-776331,Zr5N5O2,0.0
mp-776344,V2O5,2.7539000000000002
mp-776366,LiFeF4,4.077500000000001
mp-776370,Ag3IrO4,0.0
mp-778012,Li3Fe2SbO6,0.0
mp-778024,Fe6O11F,0.0
mp-778025,Li3Mn2FeO6,0.41500000000000004
mp-778052,Sm2TeO6,3.0282999999999998
mp-778344,Li2MnF4,3.3278999999999996
mp-778347,LiFeF4,3.1029999999999998
mp-778419,Na14Cu2O9,0.0
mp-778497,Na6Bi2P(CO4)4,0.0
mp-778516,Fe3O5F,0.0
mp-780870,Fe4O7F,0.0
mp-780881,Li4Mn3Cr3O12,0.0
mp-780882,LiMnPH2O5,3.058
mp-780894,Na6Ni2P(CO4)4,0.0
mp-780905,Li2Co4O7F,0.0
mp-780913,Na2VO3,1.8482000000000003
mp-780919,LiMnF4,2.0564999999999998
mp-780921,CeCrO3,0.0
mp-781505,Ca3WO6,3.7060000000000004
mp-849271,AgIO3,1.9765000000000001
mp-849352,V3CrO8,0.047800000000000065
mp-849388,V2O3F,0.0
mp-849389,Li2Fe(CuO3)2,0.0
mp-849404,Na3FeO4,0.14390000000000003
mp-849429,Li3Co2OF5,1.5355999999999999
mp-849444,Li2Ti2NiO6,2.8432999999999997
mp-849536,Ni3O4,0.0
mp-849587,MnOF,0.0
mp-606377,Ce2Zn4Ru,0.0
mp-606511,La(GePt)2,0.0
mp-606949,C,0.0010999999999998789
mp-607021,Sr4Mn2Cu3(SO)4,0.0
mp-607080,NdCu9Sn4,0.0
mp-607111,AlPt3,0.0
mp-607139,ZrSnIr,0.0
mp-607230,Ca3Ga3Rh2,0.0
mp-607369,Zn5B3Ir7,0.0
mp-607371,RuN2,0.0
mp-607475,Zr4In5Co2,0.0
mp-607712,Lu2(CN2)3,4.173900000000001
mp-607715,PrZnRh,0.0
mp-607721,NdZnRh,0.0
mp-607725,Ce(PPt2)2,0.0
mp-607738,CeZnRh,0.0
mp-607816,UFeGe,0.0
mp-607848,La(In2Ni)3,0.0
mp-607917,La21Fe8Sn7C12,0.0
mp-608162,K2CuPb(NO2)6,0.0
mp-608254,SmClF,0.0
mp-608338,ZrFeF6,0.0
mp-608366,CuN6,0.0
mp-608402,Zr2InPd2,0.0
mp-608439,Pb2O3,1.0516000000000005
mp-608517,EuSnPt,0.0
mp-608543,Sc2CrC3,0.0
mp-608655,Mn5Si2,0.0
mp-608717,EuMoClO4,0.0
mp-608769,Hf(MoO4)2,2.3164999999999996
mp-608823,Ga2Fe2S5,0.0
mp-609465,Fe2O3,0.0
mp-610469,CeBiS2O,0.0
mp-610491,BiSeCl,1.8404000000000003
mp-610517,Ag2S,0.9944999999999999
mp-610631,LaGeAu,0.0
mp-610687,CeSnRu,0.0
mp-610744,Cs2MnTe2,1.0935000000000001
mp-647452,CaTi4(CuO4)3,0.0
mp-647557,ZrPbO3,2.8467999999999996
mp-647604,PuIO,0.0
mp-647629,YbMoClO4,0.0
mp-647987,RbBiC4(SN)4,2.5595999999999997
mp-648519,ThMn4(CuO4)3,0.0
mp-648745,NaTiFeO4,1.9787999999999997
mp-649039,Ga2Fe2Bi2O9,1.8124000000000002
mp-699691,Mn7SbAsO12,0.0
mp-703316,LaMg2H7,2.6058999999999997
mp-703517,NaMgPH12O11,0.31800000000000006
mp-754631,NaCu2O3,0.0
mp-754632,Pr(ReO4)2,0.0
mp-754640,Ce2SeO2,0.0
mp-754655,Eu2SeO2,0.0
mp-754660,LiFeS2,0.0
mp-754664,Li2TiCuO4,0.0
mp-754668,Hf3N2O3,3.2508999999999997
mp-754673,Er6Te2Ru,0.0
mp-754674,Lu(CuO2)2,0.0
mp-754684,Ba4IrO6,0.0
mp-754692,Bi2BO5,0.0
mp-754698,NbO2,0.0
mp-754701,CaTiO3,3.5705999999999998
mp-754712,NClO3,2.9429999999999996
mp-754723,Li2Ti3BiO8,0.0
mp-754727,LiNiS2,0.0
mp-754757,SbRhO4,0.0
mp-754761,Sr2HfO4,3.868
mp-754767,Fe3(SnS4)2,0.0
mp-754776,Sm2Ge5Ru3,0.0
mp-754777,NaLaO2,3.9187999999999996
mp-754779,Li2NbS3,0.0
mp-754782,Na2CdO3,0.0
mp-754801,Li3Ti6O13,0.0
mp-754804,La3Ti4O12,0.0
mp-754815,YBr3,3.9764999999999997
mp-754818,NaTaO3,2.7138999999999998
mp-754823,ErTlO2,1.3714999999999997
mp-754839,SnBiO4,0.0
mp-754841,Sc(CuO2)2,0.0
mp-754844,Na2IrO3,0.0
mp-754848,Na2SnO3,2.3771999999999998
mp-754850,NaTiS2,0.0
mp-754852,BaSrI4,3.3458000000000006
mp-754870,Li2RhO3,0.0
mp-754875,TbSi2Rh3,0.0
mp-754876,SmAsO4,3.8516000000000004
mp-754878,Cu3OF5,0.0
mp-754891,Zr5N5O2,0.0
mp-754893,U4O7,0.0
mp-754902,LiSbCSO7,3.9763999999999995
mp-754936,DyAlO3,5.1659999999999995
mp-754955,LuSiRu,0.0
mp-754978,CdCu2O3,0.0
mp-754992,LuTlO2,1.2128999999999999
mp-754998,Ce2SeO2,0.0
mp-755001,Er2TeO6,2.4522999999999997
mp-755007,CeOF,0.0
mp-755010,KYbO2,0.0
mp-755013,Li5TaO5,3.7142999999999997
mp-755015,NaLaO2,3.6668000000000003
mp-755040,Cu2O3,0.0
mp-755057,Rb2PrO3,0.0
mp-755070,CeSmO2,0.0
mp-755074,CeOF,0.0
mp-755082,Sr3(AsO4)2,3.7859999999999996
mp-755084,Na6MgO4,1.9733999999999998
mp-755378,NaPdO2,0.0
mp-755389,CaEuO2,0.0
mp-755399,Li2CuSnO4,0.23280000000000012
mp-755403,Ba2Sc2O5,3.2205999999999997
mp-761686,Na2BiO3,1.1827000000000005
mp-761687,LiSbPO5,0.0
mp-761698,Mn3CoO8,0.21089999999999998
mp-761701,Fe3Co3(SbO8)2,0.0
mp-761712,Cr3Co3(TeO8)2,0.0
mp-761718,Li2MnCo3O8,0.0
mp-761730,LiCo3CuO8,0.0
mp-761738,Li2Co3NiO8,0.0
mp-761741,LiCoSbO4,1.4278999999999997
mp-761763,Li2FeCo3O8,0.42969999999999997
mp-761765,Li3Mn3SiO8,0.9150000000000005
mp-761780,LiCoPO4,2.6111999999999997
mp-761783,Li5Co2Cu3O10,0.0
mp-761784,Ba8Bi10O27,0.0
mp-761785,LiFeCoO4,0.0
mp-761802,Mn2Cr3Co3O16,0.0
mp-761803,La9Ni5O19,0.0
mp-761810,VNi3Sb2(PO4)6,0.0027000000000003688
mp-761815,LiCoPO4,2.5608999999999997
mp-762529,Li2(FeO2)5,0.0
mp-764661,Li3CoNi3O8,0.0
mp-764669,Li4V3CoO10,0.0
mp-764671,LiMn7O7F,0.0
mp-764676,MnOF,0.0
mp-764683,Li5NiO3F2,0.0
mp-764684,Mn3OF5,0.0
mp-764690,Li2V(OF)2,0.0
mp-764692,LiVCuO4,0.0
mp-764710,Li3VO3F,1.9940999999999998
mp-764711,Li2V4O5F8,0.0
mp-764724,Li4VO3F2,1.6584999999999999
mp-764728,Li2VO2F,0.0
mp-764730,Li3VO3F,1.9893999999999998
mp-764733,Li5Ni5O9F,0.042300000000000004
mp-764742,Fe2O3F,0.0
mp-764745,Fe4OF7,1.8525999999999998
mp-764746,Li5V7O12,0.21870000000000012
mp-768915,Na3AuO3,1.8236999999999999
mp-768970,Li2BiO3,0.0
mp-768971,Li(BiO2)3,0.0
mp-768987,Li8BiO6,0.0
mp-768992,Li6Bi2O7,0.0043999999999999595
mp-769002,Li2BiO3,0.0
mp-769111,Sc3Bi3O11,0.0
mp-769119,YbScO2,0.0
mp-769129,Li3SbN3(O3F)3,3.3377999999999997
mp-769138,Dy2Sb2O7,1.8993000000000002
mp-769205,Li(NiS)2,0.0
mp-769210,Tb2Pb2O7,1.0930999999999997
mp-769239,CeReO4,0.0
mp-769568,Mn2V3Cr(PO4)6,0.0
mp-772030,LiTiO2,0.0
mp-772045,SnSb3(PO4)4,0.0
mp-772046,NbCu3(PO4)4,0.0
mp-772049,Li2Ti2O5,3.7603999999999997
mp-772051,Li3CuSiCO7,0.0
mp-772054,LiMnVO4,0.0
mp-772066,Li3Ti2NiO6,0.0
mp-772086,Ba4Sn3O10,2.7237999999999998
mp-772087,Er3Sb5O12,3.1169000000000002
mp-772096,TmTe3O8,0.0
mp-772118,NaCuCSO7,0.42580000000000007
mp-772125,NbPO5,2.996
mp-772127,V2CrO6,0.0
mp-772129,Mn3Sb(PO4)4,0.0
mp-772156,ErAsO4,3.5786000000000002
mp-772157,Li4Ti5Nb3O16,0.0
mp-772189,Bi3Ir3O11,0.0
mp-772200,Na6Fe2As(CO4)4,0.0
mp-772214,LiZr2O4,0.0
mp-772216,LiNb8O14,0.0
mp-772243,La4MnO8,1.3675999999999995
mp-772248,LiV4CuO12,0.38710000000000006
mp-772249,Li4Fe3WO8,2.1771999999999996
mp-772253,Li3Cr(NiO2)4,0.0
mp-772255,CuPO3,1.8792000000000002
mp-772259,VCr2O6,0.0
mp-772278,Li2Ni2SbO6,0.0
mp-772281,Mn5Co(PO4)6,0.0
mp-772283,Li2Cr3SbO8,1.9309000000000003
mp-772290,LiAgO,1.0898999999999999
mp-772298,LiTi2Ni(PO5)2,0.004699999999999704
mp-772450,Mn3Cr(PO4)6,0.06729999999999992
mp-772455,NbNi5(PO4)6,0.0
mp-776486,MnAgO3,0.0
mp-776490,Al2O3,5.4415000000000004
mp-776493,LiVF4,2.4242999999999997
mp-776495,LiFeF4,3.6927000000000003
mp-776497,Li2La3Ti2Nb2O13,0.0
mp-776511,LiCoNiO4,0.0
mp-776622,LiV2F7,2.1014999999999997
mp-776623,LiV2F7,2.1376999999999997
mp-776629,LiVF4,2.4101999999999997
mp-776640,Ti5Cr(PO4)6,0.0
mp-776649,Li3Y(NiO3)2,0.0
mp-776651,Mn3NiO4,0.09499999999999975
mp-776666,CrFe3Sn2(PO4)6,0.037799999999999834
mp-776680,TiMn2Ni3(PO4)6,0.0
mp-776682,Mn6O5F7,0.0
mp-776687,Li5FeF8,3.8558000000000003
mp-776690,Mn3(O2F)2,0.0
mp-776853,Li4Cu3Ni2Sb3O16,0.0
mp-781626,Li2NbO3,0.0
mp-781634,HfZrO4,3.8823999999999996
mp-781646,Tb2TiO5,3.1632999999999996
mp-781671,Na6Ni2As(CO4)4,0.0
mp-781677,Mn3(O2F)2,0.0
mp-781680,Fe3O5F,0.0
mp-781686,Co3(OF2)2,0.37359999999999993
mp-781688,Fe3O5F,0.0
mp-781690,Li4Cu2Ni3Sb3O16,0.09059999999999979
mp-781692,Mn2OF3,0.0
mp-781693,Mn6O11F,0.0
mp-781695,Fe2O3F,0.0
mp-781696,Fe2O3F,0.0
mp-781697,Li2MnNbO4,0.0
mp-781703,Fe2O3F,0.0
mp-781738,Na6V2B4SO16,0.0
mp-781761,Li2FeF4,3.6637000000000004
mp-781767,Li3Fe2(CuO4)2,0.0
mp-781772,Li2Mn3VO8,0.38219999999999965
mp-781777,FeO,0.0
mp-781959,NaCo2O3,0.0
mp-781963,Li2FeO2F,1.8355999999999997
mp-781967,Co3(OF2)2,0.0
mp-782065,LiTePO5,3.5235999999999996
mp-782638,Fe3(O2F)2,0.0
mp-783905,NaV2O4,0.9135999999999997
mp-783908,Li4Cr3Cu3(SbO8)2,0.0
mp-611033,SrRuO3,0.0
mp-611393,BaLuFeCuO5,0.0
mp-611623,U(CoP)2,0.0
mp-611712,RbNa2NiO2,0.0
mp-611836,O2,1.2922000000000002
mp-612861,La(ReSi)2,0.0
mp-613235,CoSO4,1.8571000000000002
mp-613314,CoAsS,0.0
mp-613327,Fe(BW)2,0.0
mp-613455,Yb(ReO4)3,0.0
mp-613523,Fe3C,0.0
mp-613612,Yb(Fe2Ge)2,0.0
mp-613839,Tb3(MnGe)4,0.0
mp-613927,KCeCuTe4,0.0
mp-613989,Pu,0.0
mp-614369,La3BWO9,3.7852999999999994
mp-615314,ScCoC2,0.0
mp-615366,FeS2,0.0
mp-615459,La2Ni5C3,0.0
mp-615682,Ba2LaTa(CuO4)2,0.0
mp-615754,RbCuPdF5,0.0
mp-615821,Ta9(FeS3)2,0.0
mp-616173,Ce5NiGe2,0.0
mp-616260,KYb3F10,0.0
mp-616439,Cs2CuCl4,0.37629999999999997
mp-616440,C,4.3668
mp-616468,ReC5IO5,2.1994000000000002
mp-616476,FeS,0.0
mp-616481,NbFeTe2,0.0
mp-616492,DyGe2Pt,0.0
mp-616501,InCu6ClO8,0.0
mp-616512,Y3Co2,0.0
mp-652399,Li(FeGe)6,0.0
mp-652548,MgMn3(CuO4)2,0.0
mp-652608,UWC2,0.0
mp-669307,FeSbPt,0.0
mp-669320,Ba5Si3,0.0
mp-669332,Mn3Bi,0.0
mp-669339,Cs2UTa6(Cl5O)3,0.0
mp-669358,CdI2,2.3613999999999997
mp-669361,Cu2BiAsO6,0.0
mp-669381,Pb2OF2,2.2157999999999998
mp-669389,Sr3InRhO6,1.4807999999999995
mp-669391,Ca4Zn2Cu3P5,0.0
mp-669400,ScRe2Si3,0.0
mp-669421,AlTlSiO4,2.8133999999999997
mp-669427,RbCuPO4,0.0
mp-669456,La2Al3Ge4,0.0
mp-669517,Pb(C2N3)2,3.6313999999999997
mp-669546,AlPd,0.0
mp-669547,Re2Si,0.0
mp-705785,VZn2O4,1.6010999999999997
mp-706276,Li3Nb4O12,0.0
mp-755405,SrNd2O4,3.4215999999999998
mp-755414,LiTiS2,0.0
mp-755426,NdSmO2,0.0
mp-755435,Tl2Au,0.0
mp-755446,Bi2(BO3)3,0.0
mp-755448,Rb2SnO3,2.0715999999999997
mp-755449,Cd(AgO2)2,0.427
mp-755451,BaLa2Br8,3.1249000000000002
mp-755453,MnP4,0.0
mp-755455,CuTeO4,0.0
mp-755457,Li2Fe2S3,0.0
mp-755462,PrHfO3,0.0
mp-755463,Li3SbS3,2.0987999999999998
mp-755464,CeBrO,0.0
mp-755470,Li2BiS2,0.0
mp-755472,BaCuO2,0.0
mp-755487,Li2BiO3,0.0
mp-755488,SrTaNO2,0.891
mp-755515,Lu2TeO6,2.9821999999999997
mp-755523,TaS2,0.0
mp-755525,TmTiO3,0.0
mp-755526,Ba2Ti6N2O11,1.9033000000000002
mp-755530,Na3CuO2,1.6625999999999999
mp-755552,LiYS2,0.37670000000000003
mp-755556,Ba6ZrO8,2.6917999999999997
mp-755565,HoBrO,3.6526999999999994
mp-755574,LuAlO3,5.742900000000001
mp-755576,Zr2N2O,0.0
mp-755581,NaCeO2,0.0
mp-755588,Ho2TeO6,2.5187999999999997
mp-755594,ZnReO4,0.0
mp-755612,DyGaO3,3.6351000000000004
mp-755617,NaHoO2,4.0047999999999995
mp-755624,Ca2PrO4,0.0
mp-755633,K5Se3,0.42790000000000006
mp-755635,Ho2Pt2O7,1.5068999999999995
mp-755641,LiCuCO3F,0.0
mp-755652,Dy3TaO7,3.4082999999999997
mp-755666,Yb2TeO2,0.0
mp-755667,Ba4Bi3O11,0.0
mp-755691,Li2BiO2,0.0
mp-755714,SrEuO2,0.0
mp-755760,CuBi(PO4)2,0.0
mp-755779,CaLaI5,2.1794000000000002
mp-755794,Rb3LuO3,2.0393999999999997
mp-755796,Li2FeS2,0.0
mp-755797,LiTi8O13,0.0
mp-755798,ZrPbO3,2.6355999999999993
mp-755805,Sc(CuO2)2,0.0
mp-755813,Sc6N2O5,0.0
mp-755829,BSbO3,3.6549000000000005
mp-755834,AgSnO3,0.0
mp-755840,Nb2SbO6,0.0
mp-762542,Li4Ti3Cr3(SbO8)2,0.0
mp-762552,Li3NbNi3O8,0.25160000000000027
mp-762553,Li2Fe(PO4)2,0.0
mp-762555,LiFePO4,3.2958999999999996
mp-762570,Li3FeSi2O7,2.5115999999999996
mp-762576,Li2Fe2Si2O7,2.6997999999999998
mp-762577,Mn3CrNi2(PO4)6,0.0
mp-762584,Li3Mn2V5O12,0.47970000000000024
mp-762586,LiFeSiO4,2.5311999999999997
mp-762598,V3FeSb2(PO4)6,0.0
mp-762599,FeNi(PO4)2,0.0
mp-762600,Li6Fe7O15,0.0
mp-762635,Li3Mn3NiO8,0.37840000000000007
mp-762651,Li2Fe(PO3)4,4.245900000000001
mp-762655,LiFeSiO4,2.2923999999999998
mp-765448,LiCoPO4,2.9506000000000006
mp-765450,Mn2Cd3O5,0.0
mp-765456,Li4Mn3Cr3(CuO8)2,0.0
mp-765504,Li8Fe3Co5O16,0.0
mp-765522,Li4Ti3Co3(TeO8)2,1.1118999999999999
mp-765526,Li3NiOF3,1.9121000000000001
mp-765534,Li2Ni3O3F2,2.2039999999999997
mp-765538,Li3Co2NiO6,0.0
mp-765547,Li3V(OF)2,0.46069999999999967
mp-765552,Li2MnCoO4,0.49360000000000026
mp-765557,TiMn3Te2(PO4)6,1.3313000000000001
mp-765558,Li6NiOF6,1.941
mp-765566,LiAg2F6,0.0
mp-765570,Li2Mn(PO4)2,0.9969000000000001
mp-765602,Na5Ni9O16,0.0
mp-765607,Na5Mn7O16,0.0
mp-765609,NaMn10O20,0.0
mp-765610,Na11Mn13O32,0.0
mp-765611,Li10Fe3Co7O20,0.0
mp-765614,NaNi3O4,0.0
mp-765617,Li4Fe2Cu3Te3O16,0.0
mp-769579,KFePCO7,0.0011999999999999789
mp-769580,V3(PO4)2,2.1649999999999996
mp-769581,Li4Mn3Cr2Co3O16,0.0
mp-769593,Li4VCr3O8,2.0140000000000002
mp-769595,Li4VCr3O8,1.6083000000000003
mp-769611,Li4V3CrO8,1.9371999999999998
mp-769614,Li4V3CrO8,1.8720999999999997
mp-769615,Li4V3CrO8,0.0
mp-769620,Li2VCrO4,1.9324999999999997
mp-769624,Li3Co3CuO8,0.0
mp-769626,Li4Mn2Nb3Fe3O16,0.19570000000000043
mp-769627,V2CrFe3(PO4)6,0.0
mp-769629,Mn2V3P6WO24,0.0
mp-769634,Na3CrPCO7,2.4999000000000002
mp-769642,Fe(CO3)2,0.0
mp-769644,LiAlVO4,1.7215000000000003
mp-769645,LiCo(CO3)2,0.0
mp-769647,VOF,2.7095000000000002
mp-769659,Li2TiFeO4,0.0
mp-769661,CoAgO3,0.0
mp-769666,Li5Mn6O12,0.0
mp-769681,Li4Fe(BO3)2,3.7795000000000005
mp-769683,LiFeBO3,2.7733999999999996
mp-769689,Cu(NiO2)2,0.0
mp-772457,CrNi(PO4)2,0.0
mp-772458,Mn3Cr3(TeO8)2,0.0
mp-772465,CuNi4O5,0.0
mp-772467,Li4Mn3Nb5O16,0.0
mp-772473,Li2FeSiCO7,0.0
mp-772482,Mn3Sn3(TeO8)2,0.0
mp-772488,VBiO3,1.2434000000000003
mp-772495,Na2SnAsCO7,0.0
mp-772521,Li8TiO6,3.9915999999999996
mp-772523,Ba8LiTa7O24,0.0
mp-772548,SmCuO3,0.0
mp-772569,Li2Ni2BiO6,0.0
mp-772576,Na2FeSiCO7,0.0
mp-772580,Mn5Nb(PO4)6,0.0
mp-772581,LiCr6O11,0.0
mp-772584,Ti5V(PO4)6,0.0
mp-772590,Li6V2B4SO16,1.9200000000000002
mp-772593,Li2NiBiO4,0.0
mp-772597,Li2CuNiO4,0.0
mp-772598,MnO2,1.5915000000000001
mp-772632,Li4Co5Ni3O16,0.0
mp-772635,Mn3Cr2Co3O16,0.0
mp-772638,Ho2WO6,3.6336000000000004
mp-772665,BeCrO4,2.2720000000000002
mp-772666,Li2Cr2O7,2.4383999999999997
mp-772669,FeCo(PO4)2,0.12109999999999999
mp-776857,Li4Ti3Nb2Cr3O16,0.0
mp-776858,Cr3Ni(SO4)6,0.0
mp-776870,Li2V3SnO8,1.2406000000000001
mp-776876,Ti3CuNi2(PO4)6,0.0
mp-776878,NbFe3Cu2(PO4)6,0.0
mp-776887,Fe3NiSn2(PO4)6,0.058499999999999996
mp-776888,Ti3Mn2Nb(PO4)6,0.0
mp-776894,NaTiO2,0.10899999999999999
mp-776906,Ti3MnFe2(PO4)6,1.1273999999999997
mp-776907,Ti3CoNi2(PO4)6,0.0
mp-776913,Li2FeWO6,0.0
mp-776919,Ti3Fe2Te(PO4)6,0.11819999999999986
mp-776920,Fe3Ni2Te(PO4)6,0.07499999999999973
mp-776975,NbO2,0.0
mp-777005,Li2FeF4,3.5016999999999996
mp-777020,LiFeF4,4.311100000000001
mp-777021,Mn5FeO12,0.0
mp-777022,Li4Mn3Cr3(WO8)2,0.0
mp-777023,Ti3CrSn2(PO4)6,0.025699999999999612
mp-777037,Li2CrPCO7,2.8952999999999998
mp-783909,Li2MnSiO4,2.8790999999999998
mp-790064,V5Co(PO4)6,0.0
mp-791893,V3Cr2Ni(PO4)6,0.0
mp-792972,Mn3Cu2Sn(PO4)6,0.0
mp-793763,NbCr2Fe3(PO4)6,0.0
mp-793779,Li4Fe3Co3(SnO8)2,0.0
mp-793791,Sm(FeO2)2,0.0
mp-849604,Na4CrO3,0.0
mp-849636,SrTaNO2,0.9120999999999997
mp-849653,Na3(CoO2)2,0.013600000000000279
mp-849664,Li4FeOF4,4.068099999999999
mp-849667,Li4Co5O9F,0.23859999999999992
mp-849676,Li5Mn4O8,0.22609999999999975
mp-849680,Li2CuNiO4,0.0
mp-849688,Co2O3F,0.0
mp-849690,LiFe4(BO3)4,1.7270999999999999
mp-849695,Li2FeO3,0.0
mp-849696,Mn6O5F7,0.0
mp-849707,NaV4O10,0.0
mp-616559,Ti2S,0.0
mp-616575,MnB,0.0
mp-616577,Sr3BCNCl2,1.8787999999999996
mp-616615,Hf8MnTe6,0.0
mp-616672,Ga2Fe2S5,0.0
mp-616694,CsCoF3,0.0
mp-616821,U2PbSe5,0.0
mp-617119,MnFeBiO5,0.0
mp-617257,WO2,0.0
mp-617266,SrNb4O6,0.0
mp-617281,In4Te3,0.12239999999999984
mp-617283,Cu2AsClO4,0.0
mp-617426,InFeBr3,0.0
mp-617632,La3AgGeS7,1.9759000000000002
mp-617871,CsMnF4,1.9445999999999999
mp-618309,Bi2AuO5,0.0
mp-618324,ZrCo3B2,0.0
mp-618788,Ba(Cu5P2)2,0.0
mp-618807,KSb(MoO4)2,2.5382000000000002
mp-618929,Ni2GeP,0.0
mp-618964,Ba5Fe4S11,0.045700000000000074
mp-619032,PbCN2,1.7321999999999997
mp-619034,ZnSiO3,3.3916999999999997
mp-619061,Yb2S3,0.0
mp-619067,U3Cu2S7,0.0
mp-619071,PbCl2,3.0279999999999996
mp-619126,Ba2TlCuHgO5,0.0
mp-619127,Cs2KMn3F12,1.947
mp-619206,SrCa2In2Ge,0.0
mp-669566,ZnAu3,0.0
mp-669575,Hf2InNi2,0.0
mp-669594,Pr5Ga3,0.0
mp-669645,Nd5In11Ni6,0.0
mp-669684,U3Se5,0.0
mp-669692,NbPd3,0.0
mp-669720,Ni3Sn2,0.0
mp-669722,Nd(Sn2Rh)2,0.0
mp-669914,PrTlPd,0.0
mp-669918,VSnRh2,0.0
mp-669923,UGa,0.0
mp-671510,Sc3Re2Si3,0.0
mp-672184,RuC4(IO2)2,2.0610999999999997
mp-672188,Y5Pb4,0.0
mp-672240,TbNi,0.0