task_id,pretty_formula,band_gap
mp-760083,Sr5Nb5O16,0.0
mp-760084,Cu8O7,0.0
mp-760088,MgTi23O40,0.0
mp-760092,SbOF,3.0221999999999998
mp-760093,LiTi8O16,0.0
mp-760122,Li2CuF4,0.0
mp-760131,Li2Cu2F7,0.0
mp-763659,Li3V2(FeO4)2,0.9148000000000001
mp-763660,LiMn(PO3)4,1.0613000000000001
mp-763662,Co2C2O7,0.47699999999999987
mp-763665,V(CO3)2,1.5352000000000001
mp-763667,Li4Mn3(SnO5)2,0.45670000000000055
mp-763673,Fe2C2O7,1.968
mp-763676,Li4Ti2V5O12,0.26900000000000013
mp-763677,VFe3Ni2(PO4)6,1.2288000000000001
mp-763678,Li13(FeO6)2,0.0
mp-763682,Li(FeO2)3,0.0
mp-763683,LiFeP2O7,2.7386999999999997
mp-763685,Li9(FeO4)2,0.0
mp-763689,Li3(FeO2)4,0.0
mp-763691,Li2(FeO2)3,0.0
mp-763692,Li2(FeO2)3,0.0
mp-763694,Li13Mn2O12,0.0
mp-763697,Li(CoO2)3,0.0
mp-763698,Li4Nb3V3(CoO8)2,0.0
mp-763707,Li4Ti3VO8,0.0
mp-763708,Li2TiV2O6,1.2730999999999995
mp-763714,LiVP2(HO4)2,1.9417999999999997
mp-763716,LiMnPO4,3.1127000000000002
mp-763718,Li2Mn(SiO3)2,2.7600000000000002
mp-763728,Li3Mn2P2O8F3,0.0
mp-763737,Li3Mn2P2O8F3,0.0
mp-763741,LiMnP2O7,1.4548999999999999
mp-763744,LiMnP3HO10,0.9313000000000001
mp-763746,Li2FeSiO5,0.0
mp-763751,LiCoNiO4,0.0
mp-763752,Li3Mn2(NiO4)2,0.0
mp-763753,Li2Ti2FeO6,1.9744000000000006
mp-763760,Li3TiNi3O8,0.0
mp-766796,Cr2OF2,2.0584000000000002
mp-766797,Li3Mn2(CoO4)2,0.0
mp-766798,LiMnOF2,2.0584000000000002
mp-766799,Co9Cu3O16,0.0
mp-766802,Li5MnF8,1.9824000000000002
mp-766807,Li4Mn3O6F,0.0
mp-766823,Li7Ti11O24,0.0
mp-766834,Li7Ti16O32,0.0
mp-766835,InP(H2O3)2,3.8611000000000004
mp-766847,WOF3,0.0
mp-766851,Li4V(PO4)2,3.2091999999999996
mp-766855,BaH9IO5,3.5214999999999996
mp-766857,LiMn2F7,1.6745999999999999
mp-766859,LiV3(OF3)2,1.2184000000000001
mp-766865,LiMn2O3F,0.0
mp-766869,V2Bi24O41,1.6562000000000001
mp-766912,LiVF6,3.1853000000000002
mp-766913,VSn(PO4)2,0.042300000000000004
mp-766920,Mn2O2F3,0.0
mp-766922,Li4Fe3Co2Ni3O16,0.0
mp-766942,Li2MnF5,1.8375000000000001
mp-766943,MnCd4O5,0.0
mp-766947,Sn(PO3)2,3.7795999999999994
mp-766954,LiVF5,1.8982999999999999
mp-770402,Li3B2SbO6,3.1199999999999997
mp-770406,Sm2WO6,3.7504000000000004
mp-770409,Tm2GeO5,3.9474000000000005
mp-770412,ScMn2O5,0.0
mp-770413,LaHoO3,4.024699999999999
mp-770415,HoErO3,3.0775000000000006
mp-770420,Li4Ti3Mn3V2O16,0.0
mp-770448,La2Ti3O9,2.6214999999999997
mp-770465,Ba4Ce2O7,0.0
mp-770469,Li5TaO5,3.9015000000000004
mp-770470,Li5Cu5(SnO6)2,0.0
mp-770472,HoLuO3,4.5866999999999996
mp-770474,La4Ti3O12,1.8730000000000002
mp-770478,Na6Cu2As(CO4)4,0.0
mp-770483,Rb3FeO3,1.7835999999999999
mp-770486,Li3Ni2SnO6,0.0
mp-770497,Fe3CoNi2(PO4)6,0.0
mp-770501,Na6SiNi2(CO4)4,0.0
mp-770505,Li4Ti3Cr2Co3O16,0.0
mp-770513,Li8Mn2O7,0.9121999999999999
mp-770520,Li4Ti2Cr3Fe3O16,0.0
mp-770522,Li2AlVO4,2.5023999999999997
mp-770524,Li4Mn3V3Cr2O16,0.33550000000000013
mp-770526,Li6Fe2B4SO16,0.0
mp-770530,Li14Mn2O9,2.5938999999999997
mp-770534,Li2Mn3O7,1.3963999999999999
mp-773742,CoOF,0.0
mp-773744,Mn4O7F,0.0
mp-773758,Mn3(OF2)2,0.0
mp-773761,LiCo(SiO3)2,1.711
mp-773884,Bi19O30,0.0
mp-773900,BaCa2I6,3.6368000000000005
mp-773911,Ti2Sn(PO4)3,0.0
mp-773925,Li4V3NiO8,0.9832000000000001
mp-773964,Ba10LiW7O30,1.5209000000000001
mp-773974,Li6Ti15Co3O32,0.0
mp-773979,Cr(SO4)2,0.0
mp-773984,Li3Ti6Co3O16,0.0
mp-773987,Ti12Fe5O32,0.0
mp-778811,Li2Fe(BO3)2,0.0
mp-778816,Co2O3F,0.0
mp-778821,Li3MnFe2(BO3)3,2.7687999999999997
mp-778822,Mn2(SO4)3,0.11529999999999996
mp-778828,Mn3O5F,0.0
mp-778833,CoOF,0.0
mp-778863,Fe5(OF4)2,1.3919000000000001
mp-778864,Li2Mn3(PO4)3,0.013500000000000068
mp-778868,Fe10O11F9,0.0
mp-778873,BaCe2O4,0.0
mp-778878,BaLi4O3,3.3975999999999997
mp-778885,Li10Mn3Cr2Ni3O16,0.37219999999999986
mp-778888,Li3MnV(PO4)3,0.0
mp-778911,Li4Mn3Fe(BO3)4,2.9659999999999997
mp-778925,Na6CuO4,0.0
mp-862780,K2InP2S7,1.8701999999999999
mp-863365,Li2Sn(PO3)4,3.8057999999999996
mp-863377,Li2SnP2O7,2.2417000000000002
mp-863847,FeO3,0.0
mp-863850,Li3Mn3NiO8,0.0
mp-863869,Li3Mn3FeO8,0.18990000000000018
mp-863879,TiCo3(PO4)4,0.24690000000000012
mp-863882,Li4FeCo3(PO4)4,2.3295999999999997
mp-863886,Ta8Cr3O24,0.0
mp-863892,Co(NiO2)2,0.0
mp-863910,CoTe2O5,2.3710999999999998
mp-864004,Li2Fe3SnO8,0.0
mp-865135,Li2CrFeO4,1.9890999999999996
mp-637599,Bi2O3,0.0
mp-637609,Ce12InPt7,0.0
mp-637614,Zn3(InS3)2,0.0
mp-637866,Sc9Ni5Ge8,0.0
mp-637926,LaGaNi,0.0
mp-638038,SiO2,0.0
mp-638048,Mo9Se11,0.0
mp-638049,SiO2,0.0
mp-638141,LiSn5Rh3,0.0
mp-638150,KPPbS4,2.3165999999999998
mp-638226,La2Ga12Pd,0.0
mp-638261,La2GeO5,4.015499999999999
mp-638442,Gd2Al6Si4Au,0.0
mp-638469,BaC2S2(OF)6,6.1552999999999995
mp-638553,Ba2InIrO6,0.0
mp-638650,Pr7FeI12,0.0
mp-638686,AgNO3,2.0088999999999997
mp-638687,Ce2(SeO3)3,0.0
mp-639138,EuSeClO3,0.0
mp-639263,Ce3MnBi5,0.0
mp-639496,EuIn2Au,0.0
mp-639719,Cu3Mo2O9,0.0
mp-639741,SiO2,5.6594999999999995
mp-639811,KIrO3,0.0
mp-640041,NbZn16,0.0
mp-640045,Ti8Bi9,0.0
mp-640067,Ni4B3,0.0
mp-640118,CeZn3,0.0
mp-640340,Ca4MgAl3,0.0
mp-640372,Dy5NiPb3,0.0
mp-680388,ZnCuTeCl2O3,9.999999999998899e-05
mp-680502,La10Ga5Br4,0.0
mp-680506,PtCl4,0.0
mp-680530,BiPtPb3,0.0
mp-680536,Ce5Ir4,0.0
mp-680550,ZnP2,0.0
mp-680551,NdNi4B,0.0
mp-680552,Nd3Sn13Rh4,0.0
mp-680553,Sm3Sn13Rh4,0.0
mp-680561,U5Re3C8,0.0
mp-680570,Ti5P3,0.0
mp-680571,Tc(CO)5,2.9446999999999997
mp-680576,Ti2Se,0.0
mp-680578,Sm4Si3Pd4,0.0
mp-680599,VCo3,0.0
mp-680636,Er(Al10Cr)2,0.0
mp-680639,Cu3Pd,0.0
mp-680640,Ca11N8,0.0
mp-680646,NiSn,0.0
mp-680653,Yb8In3,0.0
mp-680677,Sn3Ru2,0.0
mp-680680,Sr4Ru3O10,0.0
mp-680695,Ce3B2(ClO2)3,0.0
mp-680728,K6Fe24S26Cl,0.0
mp-680754,Ca5CuPb3,0.0
mp-680842,Ca5MnPb3,0.0
mp-681992,Zr5Pb3,0.0
mp-733968,BaCaP2(HO4)2,5.327
mp-734150,Na3YH6(CO4)3,4.889
mp-735481,CoH17C(NO)8,0.939
mp-735504,KVPHO6,2.422
mp-735521,MnH6(OF)3,1.5091999999999999
mp-735563,CsCoH18N6(ClO2)4,0.0
mp-760136,Li4TiCu3(PO4)4,0.0
mp-760151,LiAgF3,0.16959999999999997
mp-760162,BiOF,3.2116999999999996
mp-760172,Na7Ti16O32,0.0
mp-760179,Cu3(OF)2,0.0
mp-760231,LiSn2(PO4)3,3.0521999999999996
mp-760304,Li2Cu2F7,0.038999999999999924
mp-760319,Bi5O7F,2.5465999999999998
mp-760359,NaTi6O12,0.0
mp-760372,Na5Ti12O24,0.0
mp-760378,LiTi2O4,0.0
mp-760421,Zr6BI12,0.0
mp-760440,Sr2U4O11,0.0
mp-760447,Tl2(PbO3)3,0.0
mp-760485,Li2CuSiO4,0.0
mp-760490,Mg7Cu2O9,0.0
mp-760512,LiCuCO3,1.8629000000000002
mp-760533,SmZr4O9,0.0
mp-760539,Li2Ti3O6,0.0
mp-760546,LiCu2(CO3)2,0.0
mp-760590,Li5(CuO2)3,0.0
mp-760594,LiTi2O4,0.0
mp-763761,Li3Fe2P4HO14,4.0950999999999995
mp-763763,Li4Cr3Fe2Co3O16,0.0
mp-763778,Li2Ni3TeO8,0.46380000000000043
mp-763788,Li5Mn3(FeO5)2,1.0632000000000001
mp-763789,Ti3Cu2P6WO24,0.0
mp-763795,Mn3O2F5,0.9756999999999999
mp-763801,Li3MnF6,1.7228999999999999
mp-763820,Li3Mn5F15,0.0
mp-763823,Cr(Bi7O12)2,0.19600000000000017
mp-763832,Li3MnPCO7,3.7331000000000003
mp-763838,Na2LiCaVP2O9,1.7406000000000001
mp-763847,RbLiMnP3HO10,3.3554999999999997
mp-763851,BaLiCaVP2O9,2.0006999999999997
mp-763854,Mn3OF6,0.47759999999999997
mp-763855,Li2VCr(P2O7)2,2.1060999999999996
mp-766966,K2InH2Cl5O,3.4497999999999998
mp-766971,Li4CrS4,0.45889999999999986
mp-766973,Li8Mn(FeO4)3,0.0
mp-766986,Li2Mn(CO3)2,3.4213999999999998
mp-766999,LiMnVP2(HO5)2,0.0
mp-767013,FePO4,2.5837999999999997
mp-767014,Na5(WO3)6,0.0
mp-767021,CrPO4,1.3818000000000001
mp-767027,Li4FeSi2O7,3.4419999999999997
mp-767030,LiVSiO4,1.9342000000000001
mp-767035,Zr7VO16,1.9250000000000003
mp-767040,Li4MnCu3(PO4)4,0.0
mp-767041,Li4Ti2Fe3Cu3O16,0.0
mp-767047,Li2Mn4O7F,0.0
mp-767051,LiNi2(PO4)2,0.0
mp-767053,Li2Co(CO3)2,2.3682999999999996
mp-767067,LiMn5O7F,0.0
mp-767068,LiVSiO4,2.686
mp-767080,LiMn2(PO4)2,0.0
mp-767090,Mn3Fe3O8,0.0
mp-767092,LiVSiO4,2.4949999999999997
mp-770537,LiMn2O3,0.0
mp-770540,Mn2PO5,0.0
mp-770546,Li2Mn2P2O7F2,2.8465999999999996
mp-770547,Mn2PO5,0.22710000000000008
mp-770548,Na6Cr2P(CO4)4,0.0
mp-770549,Li4Cr3Cu3(TeO8)2,0.0
mp-770554,Mn3Co3(SnO8)2,0.0
mp-770575,LiCrPO4F,2.6155999999999997
mp-770576,FeH12(SO7)2,0.02660000000000018
mp-770577,LiAlFeO3,2.2439999999999998
mp-770580,LiCr2O3,0.0
mp-770586,Li3AlCrO5,1.9648999999999999
mp-770589,Li3Al2FeO6,2.3459999999999996
mp-770599,Li6Fe2C4SO16,0.0
mp-770605,ZrCrO3,1.3886000000000003
mp-770608,Li3Mn3O8,0.0
mp-770616,Li2Cr3BiO8,0.0
mp-770621,Li4Ti3V2Co3O16,0.0
mp-770626,Li6Ni2P(CO4)4,0.0
mp-770629,Li2AlFeO4,3.0927000000000002
mp-774006,Li4Mn3SbO8,0.0
mp-774011,Li7Mn12Cu5O32,0.0
mp-774016,Li2NbV3O8,1.1083000000000003
mp-774020,LiVPO4,1.8992999999999993
mp-774023,Na2Ti3Fe(PO4)6,0.0
mp-774024,MnZn4O5,0.0009999999999998899
mp-774025,TiCr3(PO4)6,0.0
mp-774048,Fe4OF7,1.9254000000000002
mp-774059,Li7Ti12Fe5O32,0.0
mp-774068,Mn3(O2F)2,0.0
mp-774074,Na2Sb4O11,1.8421999999999998
mp-774080,Mn2O3F,0.0
mp-774081,Li4Mn3Fe(BO3)4,3.0413000000000006
mp-774414,Ti3Mn(PO4)6,0.0
mp-774419,MnCr3(PO4)6,0.0
mp-774432,K2Li3NiO4,1.8090000000000002
mp-774449,Li2Ti3SbO8,0.0
mp-774461,TiMn3(PO4)6,0.0
mp-774462,LiFePO5,0.0
mp-774466,CoP6(WO8)3,0.0
mp-774502,NbSb3(PO4)6,0.0
mp-774528,Li11Ti24O48,0.0
mp-774535,TiNb3(PO4)6,0.0
mp-774547,Er2GeO5,3.8644000000000003
mp-774561,Zr2(PO4)3,0.0
mp-779072,Li4MnFe3(BO3)4,3.1540999999999997
mp-779073,LiMnF3,3.7828999999999997
mp-779078,Na2CoO3,0.0
mp-779079,Ti3V2P6WO24,0.07430000000000003
mp-779086,LiCr(PO3)4,2.8150999999999997
mp-779089,CoOF,0.0
mp-779095,Mn3OF5,0.0
mp-779096,Tm3TaO7,3.5119000000000002
mp-779101,LiFePCO7,0.0
mp-779170,Mn4O7F,0.0
mp-779171,LiCr(PO3)3,2.8768000000000002
mp-779175,Li8Mn7Fe(BO3)8,2.9027999999999996
mp-779192,LiCoSiO4,1.3233000000000001
mp-779200,Li4Nb2Cr3Ni3O16,0.0
mp-779201,Li6MnV3(PO4)6,0.0
mp-779210,Li4Mn3Fe2Cu3O16,0.0
mp-779213,Li6MnFe5(BO3)6,2.8451999999999993
mp-779214,Mn2OF3,0.0
mp-779216,Fe2O3F,0.0
mp-779219,Li8Mn7Fe(BO3)8,2.8866999999999994
mp-779222,Li3Co2(SiO4)2,0.14669999999999983
mp-779226,Li5Mn6(BO3)6,0.0
mp-865526,TmSb(PbO3)2,2.5854999999999997
mp-865605,YBr3,2.9454000000000002
mp-865606,CsTaGeS5,0.9888999999999999
mp-866306,Ba(NdS2)2,1.6426000000000003
mp-866339,Cd(PO3)2,4.0085999999999995
mp-866481,Co2(SnTe)3,0.41710000000000047
mp-866637,KPPdS4,1.477
mp-866807,TiZnH12(OF)6,3.3476999999999997
mp-866834,Ca2SnS4,1.9707999999999997
mp-866850,CaSnS3,0.42469999999999963
mp-866936,CaSnS3,0.24880000000000013
mp-640381,YbCuS2,0.0
mp-640447,Ce5NiPb3,0.0
mp-640566,Yb8Si11,0.0
mp-640578,KTiI3,0.0
mp-640584,BaMo2P3O14,1.8054999999999999
mp-640708,FeGe2,0.0
mp-640765,FePbC5N6O,2.3329999999999997
mp-640790,Ba8Nb6CoO24,0.0
mp-640825,Sr5(InBi3)2,0.0
mp-640880,Nd2(Al3Co)3,0.0
mp-640890,Rb4Fe2O5,1.8578999999999999
mp-640898,La6Mg22Al,0.0
mp-640899,Ce2Zn2Cu5,0.0
mp-640926,Cu(NO3)2,0.0
mp-641366,BaWO4,2.6940999999999997
mp-641367,Cr3AuO8,1.1076000000000001
mp-641509,In9Ni13,0.0
mp-641533,InAs,0.0
mp-641651,U2(Al3Co)3,0.0
mp-641689,Ce6In5Pd12,0.0
mp-641778,Dy7In(CoGe3)4,0.0
mp-641957,Nd(Fe2B)6,0.0
mp-642031,Sr11Al4In3,0.0
mp-642157,V2Cu3Pb(ClO4)2,0.0
mp-642250,LaFe12O19,0.9630000000000001
mp-642331,Ca19In8N7,0.0
mp-642426,FeCuC5N6O,0.0
mp-642458,CeIn4Pd,0.0
mp-642493,Hf3Al3C5,0.0
mp-642740,CsLi(H2N)2,1.9969999999999999
mp-642821,K3H5Pt,3.1250999999999998
mp-683501,Cr(CO)6,0.0
mp-683887,Ba5Na2Ru3O14,0.0
mp-683952,SiO2,1.3132000000000001
mp-684583,CsO2,0.0
mp-684640,MoCl3,1.1925000000000001
mp-684652,BeF2,6.800199999999999
mp-684680,Yb2S3,1.4034999999999997
mp-684708,Er2S3,1.9718999999999998
mp-684721,TiNb2Zn(PbO3)4,0.22969999999999935
mp-736272,HgH16C6(N2Cl)2,3.7758000000000003
mp-738615,HgH3CSO3,2.8053999999999997
mp-743133,NiH12(BrO7)2,3.038
mp-743541,MnPH5CO4,3.3453999999999997
mp-743598,TiCdFe(PO4)3,2.2584999999999997
mp-760629,LiBiP2O7,3.5500999999999996
mp-760657,Yb(BO2)3,0.0
mp-760698,Yb2TiO5,0.0
mp-760758,Bi3O4F,2.1904999999999997
mp-760773,LiCu2F7,0.0
mp-760799,LiCu3F10,0.0
mp-760804,Li2AgF4,0.0
mp-760814,LiCuF3,0.0
mp-760829,Na(CuO)2,0.0
mp-760980,FeCu5S4,0.0
mp-760991,NaNb2O4,0.0
mp-761024,Na2Cd2O3,0.38549999999999995
mp-761032,Hf5N5O2,0.0
mp-761034,Hf5N5O2,0.0
mp-761046,Na3Ti2(PO4)3,0.0
mp-761078,Na9Ti20O40,0.0
mp-761108,BiOF,2.3785999999999996
mp-761136,NaTi8O16,0.0
mp-761140,Na4Ti7O16,2.4747999999999997
mp-761153,U6O11,0.0
mp-761184,Na2SnO3,2.5075999999999996
mp-761190,LiCu(PO3)3,0.47219999999999995
mp-761191,LiCuPO4,0.0
mp-761287,Ca2WO5,3.0115999999999996
mp-761289,Li2CrSn(PO4)2,2.0591999999999997
mp-761297,Na5LiCo2P2(CO7)2,2.6602000000000006
mp-761303,LiNiBO3,3.1532999999999998
mp-761310,Mn(AsO2)2,1.9687999999999999
mp-761312,Li2Mn3CrO8,0.0
mp-761315,MnFeO4,0.0
mp-763876,Li2MnSiO4,3.0698999999999996
mp-763878,LiMn2O2F3,0.0
mp-763879,Li2VCrP2(HO5)2,0.0
mp-763885,LiMnOF2,0.41279999999999994
mp-763886,La7Mn8O23,0.0
mp-763902,Mn3OF5,0.0
mp-763905,Co6O5F7,0.0
mp-763907,Li5Mn3Cr2O10,0.9105000000000003
mp-763908,V3O5F,0.30359999999999987
mp-763909,V6O11F,0.0
mp-763915,Co3OF5,0.0
mp-763917,Cr4CuO12,0.0
mp-763919,LiCo2OF3,1.8332000000000002
mp-763921,Co6O7F5,0.0
mp-763931,CoOF,0.0
mp-763932,Li4Ti3Fe2Ni3O16,0.0
mp-763938,CoOF,0.0
mp-763940,Co2OF3,0.0
mp-763941,Mn6OF11,0.0
mp-763946,NaFePO4,3.7034000000000002
mp-763949,Co6O7F5,0.0
mp-763950,V3O5F,0.0
mp-763957,V3(O2F)2,0.21799999999999997
mp-763961,Li5TiV3O8,0.0
mp-763962,Li4Ti3Fe3(CuO8)2,0.0
mp-763963,Co3(O2F)2,0.0
mp-763964,Li6Co3Ni5O16,0.0
mp-763967,Co3(O2F)2,0.0
mp-763979,Li4Ti3Mn2Nb3O16,0.0
mp-763982,Li3TiV2O6,0.0
mp-763986,V3O5F,0.48019999999999996
mp-767099,Li4Mn7O9F7,0.43589999999999995
mp-767100,Li4Ti2Ni3Sn3O16,0.21760000000000002
mp-767101,WO2F,0.0
mp-767103,LiVSiO4,2.6306999999999996
mp-767105,LiFe2(PO4)2,1.3618999999999999
mp-767116,Li2MnO2F,0.9769999999999999
mp-767118,Li2Mn2OF6,1.3434000000000001
mp-767120,Mn2FeO6,0.0
mp-767144,SrLa3MnO8,0.0
mp-767148,P2WO8,1.9197000000000002
mp-767151,Li2CuNi(PO4)2,0.0
mp-767152,Ba3Fe3O8,0.0
mp-767167,LiCo2(PO4)2,0.9204999999999999
mp-767171,Li5(NbS2)7,0.0
mp-767177,Co2RuO4,0.0
mp-767195,Mn5O3F5,0.0
mp-767201,Li4Mn2Cr3Fe3O16,0.0
mp-767211,LiMn2(PO4)2,0.0
mp-767217,LiMn(PO4)2,0.23919999999999997
mp-767218,Li9(NbS2)14,0.0
mp-767225,LiFe2(PO4)2,1.5209000000000001
mp-767234,Li4Fe2Co3Cu3O16,0.0
mp-767241,Li4Mn3Sb(PO4)4,0.27280000000000015
mp-767253,LiFeSiO4,2.8739999999999997
mp-767264,Li2Ni5O7,0.0
mp-770642,Li2MnSO4F3,1.677
mp-770647,Li2SiSnCO7,3.2725999999999997
mp-770667,Li24MnCr11O36,0.9245999999999999
mp-770672,Na2LiMnPCO7,3.3857999999999997
mp-770673,V5Sb(PO4)6,0.0
mp-770679,Li5CrP2(O4F)2,3.1341000000000006
mp-770681,LiCr10O15,0.20350000000000001
mp-770685,Li4Mn3Ni3(SbO8)2,0.0
mp-770687,LiCr2O5,0.0
mp-770689,Li2MnAl2O6,1.9548999999999994
mp-770691,Li3AlFeO5,0.20579999999999998
mp-770699,KLiMnO2,1.0669999999999997
mp-770706,Li6MnAlO6,0.9731000000000001
mp-770708,Na3SiBSbO7,0.0
mp-770710,Li3Mn7O16,0.0
mp-770718,Mg(IO3)2,3.1062999999999996
mp-770731,LiZr2O4,0.0
mp-770745,Li2Cr2O7,1.5210000000000001
mp-770747,Na6Cr2As(CO4)4,0.0
mp-770755,Li3CrO3,1.0049000000000001
mp-770757,Li2MnFe3O8,0.0
mp-770767,SmCuO3,0.12179999999999991
mp-770768,Na6Fe2B4AsO16,0.0
mp-770785,Na6Mn2B4AsO16,0.0
mp-770792,Ti2Mn3Fe3O16,0.0
mp-770793,Li5Ti2Cu5O12,0.0
mp-770800,Li4Ti3Nb5O16,0.0
mp-770801,Li4Fe5NiO12,0.0
mp-770806,Sm2TiO5,3.3038999999999996
mp-770812,SrCe2O4,0.0
mp-770816,Dy2TiO5,3.3007999999999997
mp-770840,LiVGaO4,1.3477000000000001
mp-770845,Li2Al2FeO6,0.0
mp-774697,Li8NbO6,0.0
mp-774702,Li3BiO4,1.3994999999999997
mp-774714,Li3Sb(PO4)2,3.1538999999999997
mp-774803,TiSb3(PO4)6,0.0
mp-774859,LiNbPO5,0.0
mp-774874,Li3Ti2CuO6,0.21549999999999958
mp-774883,LiFe3(SnS4)2,0.0
mp-774908,LiTiNbO4,0.0
mp-775007,SbP6(WO8)3,0.0
mp-775017,Fe3Ni(PO4)4,0.0
mp-775018,TiFe(PO4)2,1.783
mp-775019,CoSb(PO4)2,0.0
mp-775020,Mn2OF3,0.0
mp-775024,MnNi3(PO4)4,0.0
mp-775025,MnCu(PO4)2,0.0
mp-775033,Mn2FeO6,0.0
mp-775035,Li2NiSnO4,2.1677999999999997
mp-775044,LiVO3,2.0871999999999997
mp-775059,Li2Mn2CrO6,0.0
mp-775064,VCu3(PO4)4,0.0
mp-775069,Li5Cu2Ni3O10,0.0
mp-775076,CrSb(PO4)2,1.5183999999999997
mp-775077,FeNi3(PO4)4,0.0
mp-775078,Li4Ti3Nb3V2O16,0.0
mp-775081,LiNbCrO4,0.0
mp-775085,Li2Cr2FeO6,0.32379999999999987
mp-779228,Li4MnNi5O12,0.46110000000000007
mp-779237,Mn3O5F,0.0
mp-779242,Fe4O7F,0.0
mp-779244,Mn6OF11,0.0
mp-779255,V3O5F,0.33940000000000037
mp-779274,Mn4O7F,0.0
mp-779287,La2HgO4,2.2371999999999996
mp-779305,Li2FeBO4,2.6807999999999996
mp-779328,NaCu2O3,0.0
mp-779352,Mn2O3F,0.0
mp-779428,Sr4HfO6,3.7468000000000004
mp-779453,BaNa6O4,1.6481999999999999
mp-779519,Ba4Hf3O10,3.604
mp-779599,DyTiO3,0.0
mp-779608,Ba3(BO3)2,3.1068999999999996
mp-779654,Na3Nb6O11,0.0
mp-779662,Zr5Sn3O,0.0
mp-779664,AgGeO3,0.0
mp-867534,LiAg2F4,0.0
mp-867626,Tl3Os3O10,0.0
mp-867680,NaTlO,0.12119999999999997
mp-867701,Li6CuS4,0.0
mp-867714,Li2Fe(PS3)2,0.0
mp-867739,Nb3GeS6,0.0
mp-867741,LiCuF4,0.0
mp-867824,LiAg3F8,0.0
mp-867955,Na2Nb3O6,0.0
mp-867998,In15SnO24,0.0
mp-868013,Li4Mn3Co2Ni3O16,0.0
mp-868126,Li3Mn(NiO3)2,0.0
mp-600604,CuO2,0.0
mp-614565,CuO2,0.0
mp-642834,BaH5ClO3,4.9758000000000004
mp-642996,Li4H6Os,2.691
mp-643006,Cs3H5Pd,2.2702999999999998
mp-643248,Na2AlH4ClO4,4.5161999999999995
mp-643270,K3ZnH5,3.7100999999999997
mp-650715,Gd2Be2GeO7,3.2535999999999996
mp-651268,Fe2Cu6SnS8,0.0
mp-651682,Cu3B7IO13,0.0
mp-685281,TiZnH12(OF)6,3.0957999999999997
mp-685606,Li2VCl4,1.1057999999999995
mp-686764,Ca5FePb3,0.0
mp-689684,P2O5,1.1180999999999999
mp-689929,LiV(PO4)2,1.353
mp-690122,Nd2Mo2O7,1.3538000000000001
mp-690633,LiNi4O5,0.0
mp-690794,Sr2HN,1.8070000000000002
mp-691043,Ba10Pr5Nb(Sn2O15)2,0.0
mp-691091,Na2Al2Si3(HO3)4,2.8882999999999996
mp-691154,Co(IO3)2,2.5682999999999994
mp-693773,ScH16C3S3O17F9,3.936
mp-694898,Sr5La3Mn4(WO6)4,2.1071999999999997
mp-695000,LiMg6Sc(SiO3)8,3.2110999999999996
mp-695030,La10Mg(Ga3O10)3,0.0
mp-695043,K4PH5Se3O16,3.7687999999999997
mp-695113,P4H35C4(NO)16,0.0
mp-704637,Nb12WO33,1.8903999999999999
mp-704674,Ca3MnCoO6,0.0
mp-704745,Cu8O,0.0
mp-704981,Mn5Ge2,0.0
mp-705054,Cs7U8V2ClO32,1.5212999999999999
mp-705305,V(PO3)3,1.9532999999999998
mp-705314,Li3V3P8O29,1.2773999999999999
mp-705414,Fe13O14,0.0
mp-705508,Ba3LaZnReWO12,2.0437999999999996
mp-752394,AlTeO4,0.0
mp-752413,Ca2HfO4,3.8409999999999997
mp-752429,ScTlO3,0.9279999999999995
mp-752435,DyTmO3,4.5264999999999995
mp-752496,TiOF,0.0
mp-752520,GdIO,0.25229999999999997
mp-752596,YbSmO3,0.0
mp-752615,Li4(CuO2)3,0.0
mp-752645,Al2CuO4,0.0
mp-752666,LiAg2F4,0.0
mp-752673,Dy2CuO4,0.0
mp-752684,BaTm2O4,2.8878999999999997
mp-752699,LiAgF3,0.0
mp-752726,BaLa2O4,2.683
mp-752742,LiCu2F4,0.0
mp-752753,SbO2F,1.4266999999999999
mp-752798,CeTh2O6,1.8350999999999997
mp-752843,Li2CuF4,0.0
mp-752858,Li2CuSiO4,0.0
mp-752881,Li2CuS2,0.0
mp-752888,Li2CuSiO4,0.0
mp-752891,LiTi3O6,0.0
mp-752926,LiTiP2O7,0.0
mp-752928,LiCoS2,0.0
mp-752942,LiTi2O4,0.0
mp-752948,LiAg2F4,0.0
mp-752949,BiOF,3.2937999999999996
mp-752998,U3O5,0.0
mp-753031,LiCu5F12,0.0
mp-753059,TiOF,0.0
mp-753070,Sr3Rh2O7,0.0
mp-753081,Li3(CuO)4,0.0
mp-753089,LiCu2F6,0.0
mp-753131,Li3Ti4O8,0.0
mp-753139,Li6CuF8,0.0
mp-753160,BiOF,3.3537999999999997
mp-753162,Li2BiO3,0.0
mp-753176,AgCO3,0.0
mp-753181,SrCu2O3,0.0
mp-753216,LiAg2F4,0.0
mp-753260,LaAgO2,2.8266999999999998
mp-753273,LiCuF4,0.0
mp-753279,LiAg5F12,0.0
mp-753298,PrYO2,0.0
mp-753305,LiTiSiO4,0.0
mp-761349,CdCoO3,0.0
mp-761358,Li4FeO3,2.4966999999999997
mp-761367,Li3Mn2CoO6,0.0
mp-761429,Eu6WO12,0.0
mp-761891,Li3Ti4O8,0.0
mp-761965,LiCoPO4,2.4381999999999997
mp-762008,LiNiPO4,3.0820999999999996
mp-762019,LiV(CO3)2,2.0016999999999996
mp-762036,Li(CoO2)2,0.0
mp-762062,Li5Fe3Co2(PO4)6,2.3770000000000002
mp-762116,LiCu4(PO4)3,0.0
mp-762153,Li6Cr3Sb(PO4)6,1.8610000000000002
mp-764016,Na2Fe2O5,0.0
mp-764017,Li3Co3NiO8,0.0
mp-764034,Na(FeO2)2,0.0
mp-764039,LiCo7O7F,0.0
mp-764060,Na2VO3,1.7774999999999999
mp-764064,Mn3(OF2)2,0.0
mp-764099,Mn2O3F,0.0
mp-764103,Mn6O7F5,0.0
mp-764133,Li3FeNi3O8,0.0
mp-764145,NaMnO4,1.9123999999999999
mp-764199,LiVOF3,0.0
mp-764201,Li2V3O3F5,1.2510000000000001
mp-764213,Mn12O7F17,0.0
mp-764218,Li2V(OF)2,1.9796999999999998
mp-764219,CrOF,2.3137999999999996
mp-764225,LiCo5O5F,0.0
mp-764230,Li2MnO2F,0.0
mp-764258,MnOF,0.0
mp-764259,Mn4OF6,1.9791999999999998
mp-764274,VOF3,3.4012000000000002
mp-764280,Li2MnF4,4.013199999999999
mp-764326,Fe12O13,0.0
mp-764327,V2O3F,1.2810000000000001
mp-764332,LiMn5O5F,0.0
mp-764336,Li4Mn3OF8,2.2249999999999996
mp-764353,V2O2F3,0.0
mp-764356,V2OF4,1.6563999999999999
mp-764371,Co2O3F,0.0