task_id,composition,band_gap
mp-640898,La6Mg22Al,0.0
mp-1192607,La6Mg23C,0.0
mp-1192616,La6Mg23P,0.0
mp-1192585,La6Mg23Sb,0.0
mp-1211430,La6Mg23Si,0.0
mp-773521,La6Mn3O14,0.0
mp-1211667,La6Mn9Al5,0.0
mp-1223337,La6MnSb15,0.0
mp-1212204,La6Ni20As13,0.0
mp-17684,La6Ni6P17,0.0
mp-504775,La6P17Pd6,0.0
mp-1223674,La6Si3Ni2,0.0
mp-29560,La6Si7Br3,0.0
mp-1076492,La6Sm2Co7AgO20,0.0
mp-1076287,La6Sm2Co7AgO24,0.0
mp-1076179,La6Sm2V3Cr5O20,0.0
mp-1076253,La6Sm2V5Cr3O24,0.0
mp-1192004,La6Zn4Pd13,0.0
mp-1223296,La6ZnCu,0.0
mp-1223161,La6ZnSb15,0.0
mp-770762,La7(FeO8)2,0.0
mp-567729,La7C3I10,0.0
mp-763886,La7Mn8O23,0.0
mp-582055,La7Ni16,0.0
mp-573855,La7Ni3,0.0
mp-570292,La7Os4C9,0.0
mp-680525,La7P12Pd17,0.0
mp-1105925,La7Pd3,0.0
mp-1189501,La7Pt3,0.0
mp-1202486,La7Ru3,0.0
mp-1075961,La7SmCo5(CuO8)3,0.0
mp-1076880,La7SmCo5Cu3O20,0.0
mp-1076866,La7SmCo6(AgO10)2,0.0
mp-1076275,La7SmCo6(AgO12)2,0.0
mp-1076871,La7SmCo6(CuO10)2,0.0
mp-1076076,La7SmCo6(CuO12)2,0.0
mp-1076598,La7SmMn2(FeO4)6,0.0
mp-1075984,La7SmMn3Fe5O24,0.0
mp-1076671,La7SmMn4(FeO6)4,0.0
mp-1099887,La7SmMn5(FeO8)3,0.0
mp-1076669,La7SmMn6(FeO12)2,0.0
mp-1076513,La7SmMn7CuO20,0.0
mp-1099832,La7SmMn7CuO24,0.0
mp-1076792,La7SmMn7FeO24,0.0
mp-1099923,La7SmMn8O24,0.0
mp-1076610,La7SmMnFe7O24,0.0
mp-1099871,La7SmNi6(AgO10)2,0.0
mp-1076723,La7SmNi6(AgO12)2,0.0
mp-1076595,La7SmTi2V6O20,0.0
mp-1099746,La7SmTi2V6O24,0.0
mp-1076885,La7SmTi3V5O20,0.0
mp-1076581,La7SmTi3V5O24,0.0
mp-1076664,La7SmTiV7O20,0.0
mp-1075987,La7SmTiV7O24,0.0
mp-1076131,La7SmV8O24,0.0
mp-697332,La7Ti27Al5(CuO4)24,0.0
mp-1223136,La8(BiPb)3,0.0
mp-1223101,La8(BiSb)3,0.0
mp-658046,La8Al4I7,0.0
mp-568190,La8C8Cl5,0.0
mp-1178189,La8Cu3O16,0.0
mp-1181551,La8Cu7O19,0.0
mp-997590,La8MgAl7O24,0.0
mp-698617,La8Mn9O27,0.0
mp-28507,La8Nb7S22,0.0
mp-582242,La8Ni4Br7,0.0
mp-559854,La8Ru4O21,0.0
mp-1211963,La8Sb14Pt17,0.0
mp-542503,La9(SbO)5,0.0
mp-624186,La9B3C6Br5,0.0
mp-679979,La9B3C6I5,0.0
mp-1224522,La9Mn5S21,0.0
mp-761803,La9Ni5O19,0.0
mp-1226993,La9Ni5S21,0.0
mp-1223566,La9Ni6O19,0.0
mp-1196632,La9Sb5CO4,0.0
mp-1948,LaAg,0.0
mp-1025059,LaAg2,0.0
mp-1097276,LaAg2Au,0.0
mp-1184971,LaAg2Hg,0.0
mp-974463,LaAg2Sn,0.0
mp-1185024,LaAg3,0.0
mp-1223062,LaAg5,0.0
mp-1198391,LaAgAs2,0.0
mp-867910,LaAgAu2,0.0
mp-20568,LaAgGe,0.0
mp-867245,LaAgHg2,0.0
mp-768308,LaAgO3,0.0
mp-13406,LaAgPb,0.0
mp-20271,LaAgSb2,0.0
mp-1223033,LaAgSn,0.0
mp-12684,LaAl,0.0
mp-2694,LaAl2,0.0
mp-1223006,LaAl2Ag3,0.0
mp-1071208,LaAl2BOs2,0.0
mp-1018738,LaAl2BRu2,0.0
mp-1225549,LaAl2Cu3,0.0
mp-1222903,LaAl2Pt3,0.0
mp-677482,LaAl2Si5N9O,2.0952
mp-959,LaAl3,0.0
mp-1069603,LaAl3Au,0.0
mp-1070573,LaAl3Cu,0.0
mp-1211232,LaAl3Ni2,0.0
mp-30815,LaAl3Pd2,0.0
mp-1080524,LaAl5Ni2,0.0
mp-1185007,LaAlAg2,0.0
mp-1101778,LaAlAu,0.0
mp-1222930,LaAlCo4,0.0
mp-1222898,LaAlCu4,0.0
mp-1222956,LaAlCuNi3,0.0
mp-11511,LaAlGe,0.0
mp-1222929,LaAlNi4,0.0
mp-1103109,LaAlPt,0.0
mp-1211543,LaAlRh,0.0
mp-5330,LaAlSi2,0.0
mp-1222935,LaAlZn,0.0
mp-708,LaAs,0.0
mp-1222953,LaAs2Au,0.0
mp-1185145,LaAs3,0.0
mp-1071028,LaAsIr,0.0
mp-11212,LaAsPd,0.0
mp-10956,LaAsRh,0.0
mp-1084754,LaAsRuO,0.0
mp-1002136,LaAu,0.0
mp-1072087,LaAu2,0.0
mp-864901,LaAu3,0.0
mp-5992,LaB2Ir2C,0.0
mp-10112,LaB2Ir3,0.0
mp-1024956,LaB2Pd2C,0.0
mp-9219,LaB2Pt2C,0.0
mp-6794,LaB2Rh2C,0.0
mp-3465,LaB2Rh3,0.0
mp-29723,LaB2Ru3,0.0
mp-7283,LaB4,0.0
mp-1203920,LaB5NO14,0.0
mp-568090,LaBC,0.0
mp-3846,LaBPd3,0.0
mp-31052,LaBPt2,0.0
mp-1211262,LaBPt4,0.0
mp-3088,LaBRh3,0.0
mp-1193251,LaBe13,0.0
mp-1222880,LaBeAl3,0.0
mp-1192952,LaBeCu12,0.0
mp-981934,LaBeO3,0.0
mp-631487,LaBeOs2,0.0
mp-22926,LaBi,0.0
mp-1147562,LaBi2(CO)2,0.0
mp-1078401,LaBi2Au,0.0
mp-867248,LaBi3,0.0
mp-1018136,LaBiPt,0.0
mp-27679,LaBr,0.0
mp-1001925,LaC,0.0
mp-2367,LaC2,0.0
mp-1206284,LaCBr,0.0
mp-1206182,LaCI,0.0
mp-776,LaCd,0.0
mp-1201591,LaCd11,0.0
mp-1207143,LaCd2Cu,0.0
mp-1097210,LaCd2In,0.0
mp-12469,LaCd2Pd,0.0
mp-862559,LaCd3,0.0
mp-862743,LaCdAu2,0.0
mp-862262,LaCdHg2,0.0
mp-973869,LaCdO3,0.0
mp-1078614,LaCdPd,0.0
mp-1222922,LaCe,0.0
mp-1223140,LaCe(CoNi)5,0.0
mp-1225580,LaCe(CuSi)4,0.0
mp-1223711,LaCe(GePt)4,0.0
mp-1222964,LaCe(MnSi)4,0.0
mp-1223576,LaCe(Mo3S4)4,0.0
mp-1222952,LaCe(SiPd)4,0.0
mp-1223081,LaCe2Mn3O9,0.0
mp-1185156,LaCe3,0.0
mp-1222945,LaCe4,0.0
mp-1223245,LaCe4(SiRu)10,0.0
mp-1222920,LaCeAl4,0.0
mp-1222899,LaCeB12,0.0
mp-1222939,LaCeBe26,0.0
mp-1222943,LaCeC4,0.0
mp-1223000,LaCeCo10,0.0
mp-1223412,LaCeCu12,0.0
mp-1185183,LaCeHg2,0.0
mp-1223179,LaCeIn6,0.0
mp-1185169,LaCeMg2,0.0
mp-1222969,LaCeMn2O6,0.0
mp-1222918,LaCeN2,0.0
mp-1223428,LaCeNi10,0.0
mp-1223014,LaCeNiPt,0.0
mp-1222924,LaCeOs4,0.0
mp-1222905,LaCePd6,0.0
mp-1222938,LaCePt2,0.0
mp-1222946,LaCeRh4,0.0
mp-1222913,LaCeRu4,0.0
mp-1223099,LaCeSi2,0.0
mp-1223176,LaCeSn6,0.0
mp-1185219,LaCeZn2,0.0
mp-27929,LaCl,0.0
mp-1207170,LaClO2,3.606
mp-30559,LaCo13,0.0
mp-568769,LaCo2,0.0
mp-1078291,LaCo2AsN,0.0
mp-1222937,LaCo2Ni3,0.0
mp-1211224,LaCo3Ni2,0.0
mp-1095566,LaCo4B,0.0
mp-570460,LaCo5,0.0
mp-1222959,LaCo5H3,0.0
mp-1080584,LaCo5H4,0.0
mp-9552,LaCo5P3,0.0
mp-504771,LaCo8P5,0.0
mp-1211348,LaCo8Si5,0.0
mp-568056,LaCo9Si4,0.0
mp-1079008,LaCoAsO,0.0
mp-13486,LaCoCu12,0.0
mp-20761,LaCoGe,0.0
mp-1095134,LaCoGe2,0.0
mp-19973,LaCoGe3,0.0
mp-1222949,LaCoNi4,0.0
mp-19051,LaCoO3,0.0
mp-1078968,LaCoSb2,0.0
mp-570885,LaCoSb3,0.0
mp-1018740,LaCoSi,0.0
mp-1206651,LaCoSi2,0.0
mp-1068559,LaCoSi3,0.0
mp-631633,LaCoTc2,0.0
mp-604153,LaCr2Si2C,0.0
mp-1079055,LaCrAsO,0.0
mp-13005,LaCrGe3,0.0
mp-1040835,LaCrReO6,0.0
mp-19861,LaCrSb3,0.0
mp-1078920,LaCu,0.0
mp-1194443,LaCu13,0.0
mp-2051,LaCu2,0.0
mp-1222916,LaCu2Ni3,0.0
mp-680690,LaCu3(RuO3)4,0.0