task_id,pretty_formula,band_gap
mp-6676,Sr2HoRuO6,0.0
mp-674478,BaCO3,4.1594999999999995
mp-675045,Li7VP4,0.0
mp-675056,Na3(TiS2)10,0.0
mp-675286,Ca3UN4,1.3944999999999999
mp-675383,Li3(Mo3S4)2,0.0
mp-675449,Pt4(O3F8)3,0.0
mp-675476,K3SnSb3,0.23940000000000028
mp-675477,Sn4Bi2Se7,0.0
mp-675532,LaTi6O12,0.0
mp-676273,Pr2SbO2,0.0
mp-676296,U(BiO2)4,0.0
mp-676308,Li2MnBr4,0.0
mp-676315,Y2GeI2,0.19159999999999977
mp-684127,K3(Na13In24)2,0.0
mp-684844,Pu2Te3,0.0
mp-684884,Ba4TlBiPb2O9,0.0
mp-684922,Np2Se3,0.0
mp-684934,U5O11,0.0
mp-684958,TaO10,0.0
mp-684963,Fe3Se4,0.0
mp-684964,Cu11S20,0.0
mp-684971,Nb11S12,0.0
mp-684977,Zr27O49,0.0
mp-685006,Ta10O9,0.0
mp-685023,Sr4N3,0.0
mp-685041,Ho2Se3,1.6135999999999995
mp-685056,Cu9S16,0.0
mp-685066,US2,0.0
mp-685079,Nb32N27,0.0
mp-685108,Cu9S5,0.0
mp-685257,CdPbO3,0.0
mp-685605,FeCu3S8,0.0
mp-685608,K2UF6,0.34499999999999975
mp-685613,Ba2PPd2,0.0
mp-685705,Mn17Nb31N48,0.0
mp-685968,Ba6Nb5S17,0.0
mp-686044,Bi12Rh12O41,0.0
mp-686354,Cr2CoSe4,0.0
mp-6939,Sr(BIr)2,0.0
mp-694881,NaNd3Ti3MnO12,0.0
mp-696986,CsH2CO3,3.4219999999999997
mp-697757,LiCr2(PO4)3,0.19540000000000002
mp-697774,Li2Cr(PO4)2,0.0
mp-697784,LiFe2(PO4)3,0.0
mp-697788,MnP2O7,0.0
mp-697794,Mn2P3O10,0.0
mp-698557,La5Mn6O18,0.011600000000000499
mp-698602,Sr5La5Mn9CuO30,0.0
mp-698617,La8Mn9O27,0.0
mp-698630,Li9Ni23O32,0.005299999999999194
mp-698650,Sr13Mn8O30,0.48219999999999996
mp-698670,Sr14Fe14O39,0.02400000000000002
mp-698706,NaCoP2HO7,2.9324999999999997
mp-698710,Sr4La4Mn7CuO24,0.0
mp-698712,Sr5La3Mn8(O5F)4,0.0
mp-698723,Ca6Nd6ScMn11O36,0.0
mp-698748,Mn2CuO4,0.0
mp-698842,Li19Ni23O42,0.0
mp-700033,Na6U5V2O23,1.8105000000000002
mp-700127,Pr5(Mo16O27)2,0.038599999999999746
mp-7080,Li5(NiN)3,0.0
mp-7089,KMgSb,1.2671999999999999
mp-720897,ZnB8(H2N)4,0.0
mp-721094,Na5Ca2Ce3Ti8Nb2O30,0.0
mp-7211,CsPrHgSe3,1.6743999999999999
mp-7281,Dy3Ni2,0.0
mp-7295,RbCr5S8,0.29110000000000014
mp-7317,Sm5Co2,0.0
mp-7332,NdP5,0.0
mp-7339,BaSiO3,4.5344999999999995
mp-7342,Sm3Ir,0.0
mp-7343,Y3Pt,0.0
mp-743814,FeP2H2O9,0.0
mp-743820,Cu3Mo2(HO5)2,0.22649999999999992
mp-744264,CrH15S2O15,3.3327999999999998
mp-7493,CaSb2,0.0
mp-752793,Li2AgF3,1.9647999999999999
mp-753318,DyBO3,4.514
mp-756474,Rb3YO3,2.203
mp-756573,Cu(TeO3)4,0.0
mp-758727,CuCO3,0.0
mp-758897,LiCuPO4,0.0
mp-759943,Al2O3,4.0645999999999995
mp-759998,Li4Nb(TeO4)3,0.0
mp-760091,Nb(SO4)2,0.17510000000000003
mp-760323,Ce5O9,0.0
mp-762276,Li2NbCr3O8,1.9445999999999999
mp-764144,LiCo3OF5,2.4993999999999996
mp-764220,LiV2OF5,1.8389000000000002
mp-764235,Li3Co2Cu3O10,0.0
mp-764236,Li2MnCO5,0.9525999999999999
mp-764751,Mn6O7F5,0.0
mp-764930,Sr2Fe23O38,0.0
mp-764938,Li3Fe8(BO3)8,1.7381999999999997
mp-764941,Li3Fe8(BO3)8,1.5204999999999997
mp-767642,Li4MnFe2(BO3)4,1.9108000000000003
mp-767720,Li2V4Si4O13,1.9006999999999996
mp-767781,Sr16Mn8O29,0.38050000000000006
mp-767797,Li3Fe4(PO4)6,0.0
mp-767942,Li3Fe3CoO8,0.0
mp-768017,Li4Co3CuO8,0.0
mp-770321,Li2Mn3CrO8,0.0
mp-771707,Li2SnBPO7,2.7306999999999997
mp-771709,V3Fe2Co(PO4)6,0.0
mp-771717,Mn2O3,0.0
mp-771741,Li2Mn3CuO8,0.0
mp-771804,Li2SbAsCO7,3.2398999999999996
mp-771815,Eu2Al4O9,0.0
mp-771914,Ba3La2Cl12,3.9776000000000002
mp-771973,BaLa2Cl8,3.6782000000000004
mp-772021,LiMnO2,0.46640000000000015
mp-772036,YTa7O19,3.1553999999999998
mp-772137,Er2Sb2O7,1.7511999999999999
mp-774072,Fe7O3F13,0.9430000000000001
mp-775651,Li2Mn3CoO8,0.0
mp-775676,Li4TiFe4(Co2O9)2,0.0
mp-775678,Li4Ti4Mn4CoO18,0.0
mp-775744,Na2NiPCO7,0.0
mp-775784,Hf2N2O,2.091
mp-775785,Hf2N2O,2.0252999999999997
mp-780826,LiFeF3,3.2948999999999997
mp-780854,Fe4O7F,0.0
mp-780855,Fe4O7F,0.0
mp-780858,Fe4O7F,0.0
mp-780859,Ti3V2Ni(PO4)6,0.9772000000000003
mp-780863,Li4V2Fe3Cu3O16,0.0
mp-781081,VOF3,3.1090999999999998
mp-782649,Na4Mn2P(CO4)4,0.0
mp-782651,Li3MnNb4O12,0.0
mp-782818,Mn12O5F19,0.0
mp-782820,Li5Mn6(BO3)6,0.37850000000000006
mp-8313,Cs2Li2GeO4,3.4743999999999997
mp-850152,Li2MnSiO4,2.8520999999999996
mp-850153,Li2Mn2(SiO3)3,3.0765000000000002
mp-850157,LiMn(PO3)4,1.3193000000000001
mp-850431,LiFe4(BO3)4,1.7173000000000003
mp-850448,Mn6OF11,0.42069999999999996
mp-850503,NaCrH22N6(Cl2O)2,3.8301999999999996
mp-850505,NiP(H4O3)3,4.135400000000001
mp-850520,Mn12O7F17,0.0
mp-853139,Li2V(PO4)2,2.9619999999999997
mp-853152,Na3NiO2,0.19600000000000017
mp-853175,Li4V2Si4O13,2.1984999999999997
mp-862742,Pm2ZnGe,0.0
mp-863076,NbBiO4,2.3185000000000002
mp-867561,Li2Cu2F7,0.0
mp-8711,Cs2Li14Tb3O14,0.0
mp-8763,Tm2S2O,2.6946999999999997
mp-8770,Cs2CoSe2,0.0
mp-8829,CrGaSe3,0.0
mp-8842,CaSiPd,0.0
mp-8846,Ba3Nb5O15,0.0
mp-8848,TaFeTe3,0.0
mp-8857,Cs2As2Pd,0.9487999999999999
mp-8923,Sr2LiFe2N3,0.0
mp-8924,Ba2LiFe2N3,0.0
mp-8957,Na5TaO5,2.538
mp-8982,CaSiPt,0.0
mp-8998,TaNiTe5,0.0
mp-8999,NbNiTe5,0.0
mp-9102,RbVP2S7,0.0
mp-976239,LiMg,0.0
mp-977122,Li5Mg,0.0
mp-978798,Sm3I,0.0
mp-978806,Si3Ag,0.0
mp-978825,Sm3Cr,0.0
mp-978828,Sm3Zn,0.0
mp-978829,Sm3Hf,0.0
mp-978832,Sm3Pd,0.0
mp-980066,Sm2(CuAs)3,0.0
mp-980108,Sm2MgIrO6,0.0
mp-980202,TmGePd,0.0
mp-980663,Yb2Mg,0.0
mp-980752,Sm3Co,0.0
mp-980936,Y5(In2Pd)2,0.0
mp-985554,Ac3Nd,0.0
mp-989546,SrTcN3,0.0
mp-989554,LaMnN3,0.0
mp-9936,DyBC,0.18040000000000012
mp-9945,CoTe2,0.0
mvc-11438,CoSe2,0.0
mvc-11457,WO3,0.0
mvc-11482,Ca(CrS2)2,1.2807999999999997
mvc-11527,YTi2O4,0.0
mvc-11775,Ca(NiN)2,0.0
mvc-3470,YAgO3,0.028999999999999915
mvc-3476,AlAgO3,0.03399999999999981
mvc-3501,AlCuO3,0.0
mvc-3513,AlSnO3,0.0
mvc-3579,Mg3V2O7,1.2109999999999999
mvc-3613,Mg3Fe2O7,0.0
mvc-3620,V2Zn3O7,1.0960999999999999
mvc-3621,Mn2Zn3O7,0.48340000000000005
mvc-3623,Zn3Fe2O7,0.0
mvc-3670,Ca3Co2O7,0.20789999999999997
mvc-3761,Mg2Cu2O5,0.0
mvc-3762,Mg2Ti2O5,0.0
mvc-3765,YCoO3,0.0
mvc-3766,Mg2Ag2O5,0.0
mvc-3768,YCrO3,1.1966999999999999
mvc-3770,YVO3,1.0432000000000001
mvc-3772,YWO3,0.0
mvc-3773,YNiO3,0.059699999999999864
mvc-3774,AlCoO3,0.0
mvc-3775,AlCrO3,0.9463999999999997
mvc-3776,AlNiO3,0.0
mvc-3777,MnAlO3,0.0
mvc-3786,Ca2Cu2O5,0.0
mvc-3791,Ti2Zn2O5,0.0
mvc-3793,Ca2Ti2O5,0.0
mp-1013534,Sr3SbN,0.0
mp-1029726,Li6IrN4,0.0
mp-1038882,MgCd2,0.0
mp-1078110,Mn(GaS2)2,0.0
mp-1094302,SrMg3,0.0
mp-1094657,Mg5Ga,0.0
mp-1099116,CeMg14C,0.0
mp-1099320,LaMg6Bi,0.0
mp-1099827,Sr3Ca5FeCo7O24,0.0
mp-1100152,CeMg6C,0.0
mp-1183065,AcAg2Pb,0.0
mp-1183646,Cd3Ga,0.0
mp-1183647,CdAg3,0.0
mp-1185996,MnBO3,0.0
mp-1194495,Ta2Au,0.0
mp-1213716,Cs2LaNb2O7,0.0
mp-12637,Ba2NdNbO6,2.8499999999999996
mp-1662,Te2Au,0.0
mp-1781,NdRu2,0.0
mp-18167,Ca3Cd2,0.0
mp-18926,La3Ni2O7,0.0
mp-21666,Nb3(Fe10B3)2,0.0
mp-23097,K2Os(Cl2O)2,1.7286000000000001
mp-2422,ErGa2,0.0
mp-25,N2,7.3311
mp-2719,DyB4,0.0
mp-31219,Si3W5,0.0
mp-31602,LiCo2(PO4)3,0.0
mp-505164,NbTe4Ir,0.0
mp-540852,Ti3Co3O,0.0
mp-554546,Eu2SiO4,0.16519999999999957
mp-557463,Na3ScSi2O7,3.7748000000000004
mp-566093,MnSO3,3.8275999999999994
mp-566555,Li3Nd3(WO6)2,3.6605999999999996
mp-567345,NbRh,0.0
mp-568964,La3MgBi5,0.0
mp-569462,Pr15Si10Ni7,0.0
mp-569804,Er5Zr3(Ni4As3)4,0.0
mp-570166,Zr6Si7Ni16,0.0
mp-570558,Rb2NbCl6,0.0
mp-619171,Rb2LiFeF6,3.6975999999999996
mp-6205,Ba2Ho(CuO2)4,0.0
mp-6228,Na2TiGeO5,3.2298999999999998
mp-6233,NaSr3RuO6,0.49650000000000016
mp-640266,Ca3Al2O6,0.0
mp-669703,EuZn13,0.0
mp-672227,CaZn13,0.0
mp-672392,Dy(FeSn)6,0.0
mp-672677,Ti6Co16Si7,0.0
mp-672950,Sb(PO3)4,0.026699999999999946
mp-672963,Sb(PO3)4,0.0
mp-673029,LiSn2P5O16,0.0
mp-673078,SnPO4,0.0
mp-673088,Nb(PO3)4,0.23330000000000028
mp-673096,Li3Sn(PO3)6,0.22160000000000002
mp-673105,Cu3(P2O7)2,0.0
mp-673117,Sn2P3O10,0.0
mp-673128,LiCuPO4,0.0
mp-673255,Cu9Se8,0.0
mp-673825,Ag3SI,0.42490000000000006
mp-674712,Ca(La2Se3)4,0.0
mp-674987,Ba5Bi5O13,0.0
mp-675042,Mg2TiO,0.0
mp-675060,In8Cu7Se16,0.0
mp-675063,KBa2As5,0.25829999999999975
mp-675164,La12Cu10O31,0.0
mp-675208,Co(Mo3Se4)4,0.0
mp-675242,Ag2HgI4,0.0
mp-675247,Li2CoCl4,0.011200000000000099
mp-675290,Nb9IrSe20,0.0
mp-675307,Fe5Ni7S16,0.0
mp-676,CaN6,3.5448999999999997
mp-676060,Gd2CuO4,0.0
mp-676072,Ce2PbSe4,0.0
mp-676083,Ce2USe4,0.0
mp-676104,Tm2CuO4,0.0
mp-686128,Bi15Ru16O55,0.0
mp-686281,Na2TbO3,0.0
mp-686293,Yb15Mg5Ge16,0.0
mp-686328,Ba6Fe14Cu11S27,0.0
mp-694888,Ba8Mn8O21,0.28859999999999975
mp-694895,Ge(WO3)6,0.0
mp-694937,Na3V2P2O8F3,2.2721999999999998
mp-694945,Ba3La7Mn2(Co4O15)2,0.0
mp-694960,NaLa2Ti2MnO9,0.024700000000000166
mp-694970,SrLa7Cu4(SnO6)4,0.0
mp-695026,NaYb3Ti2(SbO7)2,0.0
mp-695772,Mo(PO3)4,1.8371999999999997
mp-695783,LiNi(PO3)4,0.0
mp-697267,TlP(HO2)2,3.9699000000000004
mp-697827,Co3(P2O7)2,0.0
mp-697834,Ca4La4Mn7NiO24,0.09260000000000002
mp-697842,Mn(FeO2)2,0.0
mp-697850,Li2Cr(PO3)4,2.8225999999999996
mp-697863,Mn4P4O13,3.6706000000000003
mp-697969,Rb2Cu3H2S3O14,0.28400000000000014
mp-698419,ZnH6C2(NCl2)2,0.0
mp-703276,Ca5Al11TlSi13O48,0.45530000000000004
mp-705604,BaLaFe2Cu2O11,0.0
mp-744044,KSr3La8Mn12O36,0.0
mp-744474,Mo2P4O15,0.009600000000000053
mp-744583,Ba4La6Mn5In5O30,0.14010000000000034
mp-744814,RbFeP2(HO4)2,2.7521999999999998
mp-746820,NiH6(SO6)2,0.0
mp-754584,Na5CuO4,0.0
mp-757229,Na5Ti16O32,0.0
mp-757395,Li11(RuO3)8,0.0
mp-757674,Mg17(SiO3)16,0.021000000000000796
mp-757779,La5Ta22O62,0.0
mp-758138,La16Cu8O31,0.25259999999999927
mp-758383,LiCu3(CO3)3,0.0
mp-758505,LiCu3(CO3)3,0.0
mp-760120,Cu3(OF)2,0.0
mp-760165,LiCu2(PO3)5,0.10329999999999995
mp-760784,Li3Cu4F15,0.0
mp-761025,Rb3InO3,1.8955000000000002
mp-761193,LiCu4(PO4)3,0.0
mp-761347,Li2CrSi7O16,1.8155999999999999
mp-761368,Mn2FeO6,0.0
mp-761404,Co5CuO8,0.0
mp-761441,Li4Mn2Fe3Co3O16,0.0
mp-761459,LiFeSi3O8,3.3417999999999997
mp-761516,Li2Fe(PO4)2,0.0
mp-761555,Li3Fe(PO4)2,1.9917999999999996
mp-761581,LiFePO4,0.0
mp-761601,Li2Mn(PO4)2,0.40369999999999995
mp-761666,Li3Mn(Si2O5)3,1.0693000000000001
mp-761733,Li2VSi7O16,1.5127999999999995
mp-761767,LiFe(SiO3)2,2.9696999999999996
mp-761823,Na9(WO3)16,0.0
mp-762719,Li2FeSi4O11,0.0
mp-763690,Li3Fe3O8,0.0
mp-764363,Na5(WO3)13,0.0
mp-764596,Mn6O5F7,0.28570000000000007
mp-764605,Mn12O5F19,0.0
mp-764655,Li6MnV3(PO4)6,0.0
mp-764664,Mn12O5F19,0.10699999999999998
mp-764750,Li3Fe8(BO3)8,1.6965000000000001
mp-764809,Li3MnFeCo(PO4)3,2.2514999999999996
mp-764856,Li6MnV3(PO4)6,0.27859999999999996
mp-764893,Li2MnV(P2O7)2,0.39260000000000006
mp-764896,Li7Fe8(BO3)8,1.1563999999999999
mp-765423,Li3(FeO3)2,0.0
mp-765459,Li3Mn4O8,0.0
mp-765523,Ca7Cu17O24,0.0
mp-765662,Na9Ni11O20,0.0
mp-765666,Na7(NiO2)10,0.0
mp-765715,Na3Ni7O12,0.0
mp-765755,Li2VO3F,2.3131999999999997
mp-765810,Li3Nb4VO12,0.0
mp-765844,Na5(NiO2)8,0.0
mp-765953,Li2MnO2F,0.0
mp-765994,Li10V(SiO5)2,0.9504999999999999
mp-765997,Li11Ti4Mn12O32,0.0
mp-766007,Zr3U7O20,0.0
mp-766069,Sb3(WO3)20,0.0
mp-766077,Sr5U5O19,0.0
mp-766100,MgTi11O20,0.0
mp-766243,YZrO3,0.48519999999999985
mp-766284,Sr4(RuO4)3,0.0
mp-766434,SnP2O7,3.7447000000000004
mp-766557,Mn2OF3,0.0
mp-766623,LiCoSiO4,1.4593000000000003
mp-766635,VCu2HO5,0.0
mp-767237,LiFe2(PO4)2,1.4168000000000003
mp-767633,Li4Ti9O20,1.8417000000000001
mp-767635,Li3Cr(PO4)2,1.748
mp-767655,Li6MnNi3(PO4)6,0.0
mp-767674,KLiSb3O8,0.0
mp-768047,Li3Cr4(PO4)6,0.0
mp-772790,Er(Bi3O5)4,0.0
mp-773267,LiZn(Fe5O8)2,0.0
mp-773283,Li2Mn3FeO8,0.0
mp-774300,Li3CoNi3O8,0.09489999999999998
mp-774376,Na5VO4,0.31190000000000007
mp-774380,Co2OF3,0.0
mp-774398,Mn6O7F5,0.0
mp-774415,Li2Cr3FeO8,0.0
mp-774793,LiLa8Cu3O16,0.0
mp-774927,NdH4S2NO8,5.485600000000001
mp-774963,Na5VO4,0.49529999999999985
mp-775,Er5Si4,0.0
mp-775189,Li2MnFe(PO4)2,3.0174999999999996
mp-775279,Li4Mn3Cu3(SbO8)2,0.0
mp-775292,Li2V(Si2O5)3,1.9506000000000001
mp-775512,Na2NiPCO7,0.0
mp-775513,Na2NiPCO7,0.0
mp-775561,Na2FePCO7,2.3491999999999997
mp-775602,Na5Ni2P2(CO7)2,0.0
mp-775639,Li3MnV(PO4)3,0.0
mp-775642,Li3Mn2V3O12,1.0554999999999999
mp-775677,Li4Fe5P6WO24,2.1268999999999996
mp-775696,Na5Ni2P2(CO7)2,0.0
mp-775710,LiCrPO4,1.9332000000000003
mp-775825,Li2VCrO4,0.9269000000000003
mp-776203,Li2V3NiO8,0.0
mp-776806,Li4V3Fe3(SnO8)2,0.9881999999999995
mp-776871,Li2V5O12,0.0
mp-776874,Li2V3(FeO6)2,0.0
mp-777108,Mn15O32,0.0
mp-777142,Li4Ti4Co5O18,0.0
mp-777192,Fe2O3,0.9422000000000001
mp-777432,Mn8O13F3,0.0
mp-777600,Mn8O13F3,0.0
mp-777705,Mn8O13F3,0.0
mp-782632,LiNi(SO4)2,0.0
mp-782660,LiMnP3H8O13,3.7556000000000003
mp-849084,Cr5S8,0.0
mp-849220,Li2Fe(SO4)2,4.4041999999999994
mp-849256,LiCrPH2O5,1.9992999999999999
mp-849393,Li8Fe7(PO4)8,0.010800000000000143
mp-849417,Co2OF3,0.45430000000000004
mp-849469,Li2Mn2(SiO3)3,2.856
mp-849500,LiMnBO3,3.0704000000000002
mp-849527,Rb3InO3,1.8988999999999998
mp-850142,Li2Mn(Si2O5)2,3.4758999999999993
mp-850144,LiMn(PO3)4,1.2410999999999999
mp-850145,Li4Mn7(PO4)6,2.9772999999999996
mp-850182,Mn12O5F19,0.0
mp-850233,Li2Mn3(BO3)3,0.0
mp-850238,V9O22,0.0
mp-850240,Li2Mn3(SiO4)2,2.0446999999999997
mp-850259,Mn6OF11,0.0
mp-850264,Li5Mn6(BO3)6,0.11299999999999999
mp-850892,Li12Mn5V3(PO4)12,0.0
mp-850893,Li9V12Fe7O48,0.0
mp-864800,Yb2PdAu,0.0
mp-865091,HfMnRh2,0.0
mp-865554,Mn2VGe,0.0
mp-865577,Li2CdAu,0.0
mp-9462,CsTeSe3,0.9750000000000001
mp-9495,Yb2Cu(GeO3)4,0.0
mp-9509,K2PAuS4,1.559
mp-9511,K2AsAuS4,0.9864999999999999
mp-984519,NaAsSe2,1.1885999999999999
mp-989401,CaMoN3,0.0
mp-989406,LaTcN3,0.0
mp-998602,RbOsO3,0.0
mvc-15159,MgCoO2,2.2523999999999997
mvc-15230,MgV2O6,0.0
mvc-15272,Ca2CoN2,0.0
mvc-15308,Ca2CrN2,0.0
mvc-15320,Ca2VN2,0.0
mvc-15358,Ca2NiN2,0.0
mvc-15380,Zn2CuN2,0.0
mvc-15395,Zn2CrN2,0.0
mvc-15449,YV2O4,0.0
mvc-15502,Cr2O5,0.0
mvc-15503,Mg2Ni3O8,1.1748000000000003
mvc-15541,Ti(ZnN)2,0.0
mvc-15551,Mg2WN2,0.0
mvc-15553,Mg2CoN2,0.0
mvc-15572,Mg2VN2,0.0
mvc-15669,MgBiO3,0.0
mvc-15781,AlCuO3,0.0
mvc-4292,Y2Fe3(SiO4)3,3.8480999999999996
mvc-4466,V2Zn3(GeO4)3,0.0
mp-646399,Gd(NiGe)2,0.0
mp-646609,U2InRh2,0.0
mp-647194,U2InNi2,0.0
mp-647240,Np2InRh2,0.0
mp-647347,Np2InPt2,0.0
mp-647374,Sb2Pb2O7,0.0
mp-647924,Eu2O3,0.0
mp-6496,Ba2Na(CuO2)3,0.0
mp-652036,GdFe5P3,0.0
mp-652101,Zn10Fe(B4Rh9)2,0.0
mp-652144,Cs3Mo5P6O25,0.0
mp-6526,NaGeSbO5,1.9731000000000005
mp-6571,BaCuAs2O7,0.47860000000000014
mp-6580,Ba3NdRu2O9,0.0
mp-6585,CaMgB2O5,5.311999999999999
mp-662527,Ce2Si2O7,0.018600000000000172
mp-662590,U5(B12Mo5)2,0.0
mp-662818,Ni5Ge2P3,0.0
mp-667308,Cs3(FeS2)2,0.0
mp-667803,Nd2Cu2O5,0.0
mp-669330,KCe2CuSe6,0.08139999999999992
mp-669378,Ce3Si2S8Br,0.0
mp-6698,Th2Cu(PO4)3,2.9243000000000006
mp-676143,Ce5AgSe8,0.0
mp-676180,U4Be2C5,0.0
mp-676249,SrU2O6,0.0
mp-676259,La(Mo3Se4)2,0.0
mp-680932,OsPbO3,0.0
mp-683,Pr2C3,0.0
mp-684000,Eu2Si3Ni8,0.0
mp-684003,Ti9Fe2(B4Ru9)2,0.0
mp-684525,Cu2Se,0.0
mp-684555,USe2,0.0
mp-684588,Sn3P4,0.0
mp-684706,LaO3,0.022299999999999986
mp-684732,Co2S3,0.0
mp-684769,Sr2La6TiCu3O16,0.0
mp-684787,U2Te3,0.0
mp-684798,Ag2Te,0.0
mp-685011,Te8I3,0.0
mp-685013,TiS2,0.0
mp-685105,SiO4,0.216
mp-685149,K5Sb4,0.0
mp-685216,Nb12TlTe16,0.0
mp-685220,U11Se20,0.0
mp-685267,Cr3GaS6,0.0
mp-685386,Sr8Ru7O24,0.0
mp-685414,Tb11CuSe16,0.0
mp-685442,Tl18Ag59Se39,0.0
mp-685445,Nb20(O13F7)3,0.0
mp-685515,TlOF,0.0
mp-685609,Cs10(Mo2N5)3,0.0
mp-685767,Ta24Ti5Se48,0.0
mp-705675,Sr3Mn4O12,0.0
mp-7151,CsUCuSe3,0.0
mp-7155,CsErZnSe3,2.4899999999999998
mp-720338,Sr7SiB3NO13,0.0
mp-7208,Yb2Se3,0.0
mp-721924,CaFe3Si2HO9,1.3944000000000005
mp-722963,CuH20S2(NO7)2,0.0
mp-723020,Al2Si2H5C2NO10,0.0
mp-723034,Na2Mn(H2N)4,0.0
mp-7277,Tl2GeS3,1.7699000000000003
mp-733936,Cs2MgH8(CO5)2,4.6537999999999995
mp-735518,FeH2Cl5O3,0.0
mp-736122,Ba3CaZrWO9,0.0
mp-738635,NaZnP2HClO7,0.0
mp-740764,Cu9P4(HO10)2,0.0
mp-762255,Li(NiO2)2,0.0
mp-762266,Li2Cu2F7,0.0
mp-763021,Fe4O5F3,0.0
mp-763034,Fe4O7F,0.0
mp-763036,MnOF,0.0
mp-763047,Fe4O5F3,0.06929999999999992
mp-763069,Li2Fe3Co5O16,0.0
mp-763071,Li4Fe3Co5O16,0.0
mp-763075,Fe2O3F,0.0
mp-763161,Fe4O7F,0.0
mp-763390,LiCoCO4,0.9209999999999999
mp-763632,Li4Ti3V3O12,0.0
mp-764022,MnOF,0.0
mp-764069,Na2V13O22,0.0
mp-764081,Mn6O7F5,0.0
mp-764096,Li10V3Cr5O16,0.46229999999999993
mp-764173,Mn6O7F5,0.0
mp-764185,Mn12O17F7,0.0
mp-764306,Li3Mn2F9,2.0383999999999998
mp-771554,FeCo3O8,0.0
mp-771588,Li6Nb3Fe3O16,0.013499999999999845
mp-771593,Li5Fe2Ni5O12,0.0
mp-771596,NbFe5(PO4)6,2.1475999999999997
mp-771601,Li3VPCO7,2.7478000000000002
mp-771602,Li3NiPCO7,3.7963000000000005
mp-771604,Li3CrPCO7,2.4991999999999996
mp-771607,Li7Cr5O12,0.0
mp-771608,Li3V6O16,0.0
mp-771619,Li5Cr2Ni3O10,0.0
mp-771622,Li4TiMn3O8,0.21639999999999993
mp-771623,Li5Mn3(PO4)4,0.0
mp-771625,Mn2Co5O12,0.0
mp-771626,Li5Ni7O12,0.0
mp-771633,Li3Mn(PO4)2,0.28300000000000036
mp-771634,KLi(WO3)3,0.0
mp-771656,MnFe5(PO4)6,0.0
mp-771657,Fe3Co5O16,0.0
mp-771662,Co5BiO12,0.0
mp-771667,LiV2NiO6,0.0
mp-771671,Fe5Co3O16,0.0
mp-771673,Li4Fe3NiO8,1.0738999999999999
mp-771678,NaFe2(SiO3)4,0.0
mp-771687,Li5Fe5O12,0.0
mp-771896,Li5Mn8Fe11O32,0.0
mp-772468,Li2Cr3(CoO6)2,1.7890000000000001
mp-772570,CoNCl4O3,0.46519999999999984
mp-772702,Li6Fe3Co3O16,0.0
mp-779289,Na6Bi2B4SO16,0.18359999999999999
mp-780641,MnCrO4,1.191
mp-780645,Fe3O5F,0.0
mp-780677,Mn2O3F,0.0
mp-780678,Li4Co2Ni3O10,0.0
mp-780679,Fe5O7F3,0.0
mp-780685,Fe3O5F,0.0
mp-780722,Y6N2O5,0.0
mp-780744,Fe3O5F,0.0
mp-780746,Mn6O7F5,0.0
mp-780749,Fe2O3F,0.0
mp-780752,Fe2O3F,0.0
mp-780754,Li2VP2HO8,2.0854999999999997
mp-780758,Li2MnP2O7,3.7052000000000005
mp-780770,Co3O5F,0.0
mp-780772,Ta2O5,3.0164999999999997
mp-780807,Li2TiCr3O8,0.0
mp-780867,Mn8O13F3,0.0
mp-780869,Tm2WO6,3.2150999999999996
mp-780974,Fe10O11F9,0.0
mp-781064,Fe5O7F3,0.0
mp-781068,Fe5O7F3,0.0
mp-781071,Fe5O7F3,0.0
mp-781072,Fe5O7F3,0.0
mp-781107,Fe5O7F3,0.0
mp-781670,Li5Mn6(BO3)6,0.0
mp-863731,InH4NCl4,3.6289999999999996
mp-863858,Li4V2F9,0.9705999999999999
mp-8684,Cs2VAgS4,1.4191000000000003
mp-8810,SrZn2(PO4)2,3.9629000000000003
mp-8886,Tc2As3,0.0
mp-8975,Hg3(AsO4)2,0.9868999999999999
mp-8985,Ba2YC2(O2F)3,5.263999999999999
mp-9047,RbBS3,2.3886999999999996
mp-975509,RbBa3,0.0
mp-978292,MgP,0.0
mp-978510,Si3As,0.0
mp-978518,Sm2Ag2O5,0.0
mp-978525,Si3Mo,0.0
mp-978531,Sc3Pb,0.0
mp-978535,SmDy3,0.0
mp-978546,Sc3Sb,0.0
mp-978548,SmEr3,0.0
mp-978567,SiAs3,0.0
mp-978596,Sm2Au2O5,0.0
mp-978652,SiHg3,0.0
mp-978678,Sm(BOs)2,0.0
mp-978695,SmFeP,0.10040000000000049
mp-978744,SmBi3,0.0
mp-978771,Sm(BRu)2,0.0
mp-978790,Sm3Ag,0.0
mp-978795,Sm3Hg,0.0
mp-978951,SmAl,0.0
mp-979,ZrSb2,0.0
mp-979264,Te6RhCl3,1.2547000000000001
mp-979418,Sm2(ReB2)3,0.0
mp-9999,Ni(BMo)2,0.0
mvc-1,NiS2,0.08729999999999993
mvc-10862,Ti(BiO3)2,0.0
mvc-10874,Ba(FeO2)4,0.0
mvc-10887,CaV2O4,1.4786000000000001
mvc-10888,Mg(NiO2)2,0.0
mvc-10896,Ti2AlO4,0.0
mvc-10923,Ca(FeO2)2,0.0
mvc-11034,Ti4(CuO4)3,0.0
mvc-11038,SbO2,0.0
mvc-11047,MnS2,0.0
mvc-11070,FeS2,0.0
mvc-11084,CaMoF6,2.4939999999999998
mvc-11096,MoO3,0.0
mvc-11097,CrO3,0.0
mvc-11132,Zn(NiS2)2,0.0
mvc-11190,Mg(NiS2)2,0.0
mvc-11208,La2ZnMoO6,0.0
mvc-11233,CoS2,0.0
mvc-11234,FeS2,0.0
mvc-11244,CoS2,0.0
mvc-11245,Zn(FeS2)2,0.0
mvc-11755,MgV2S5,0.0
mvc-11828,Ca2CuIrO6,0.0
mvc-11865,CaCoSi2O7,0.0
mvc-11882,Al(CuO2)3,0.0
mvc-11923,Mg3Bi2(PO6)2,0.0
mvc-11924,Mg3Bi2(AsO6)2,0.0
mvc-11925,MgBiPO6,0.0
mvc-11931,MgBiAsO6,0.0
mvc-11942,CaTi2Fe2(PO4)6,0.0
mvc-11949,CaCr2F10,1.7489000000000001
mvc-11984,CaCr2O4,2.2316999999999996
mvc-11997,Ca(CoO2)2,0.9175999999999997
mvc-12039,Fe5O7,1.1318000000000001
mvc-12162,Y2Mn3O9,0.0
mvc-12205,Fe9O13,0.0
mvc-12271,Ca2Fe2(SiO4)3,0.0
mvc-12285,CaCr2(SiO4)3,0.0
mvc-12303,Y2(NiO3)3,0.006099999999999994
mvc-12414,Ti2ZnO4,0.0
mvc-12415,CaTi2O4,0.0
mvc-12425,MgTi2O4,0.0
mvc-12444,Ti4ZnO8,0.0
mvc-12484,CaTi2O4,0.0
mvc-12486,CaTi2O4,0.0
mvc-12491,Ti2ZnO4,0.0
mvc-12500,Ti2ZnO4,0.0
mvc-12557,Mg(FeO2)2,1.6186000000000003
mvc-12573,Zn(FeO2)2,1.7509000000000001
mvc-12595,Mn2ZnO4,0.0
mvc-12603,Mg(FeO2)2,1.8052000000000001
mvc-12610,MgVO2,0.0
mvc-12621,MnZnO2,0.0
mvc-12634,Ca(NiO2)2,0.0
mvc-12642,CaMn2O4,0.0
mvc-12644,Ca(NiO2)2,0.0
mvc-12657,MgFeO2,1.4854000000000003
mvc-12664,MgNiO2,2.8627999999999996
mvc-12722,Al2(BiO3)3,0.0
mvc-12760,CaNiWO6,0.46350000000000025
mvc-12761,CaSi4(NiO6)2,0.0
mvc-12772,Sr6YTl3(Cu2O7)3,0.0
mvc-12804,EuCuO3,0.0
mvc-12807,CaMnFeO5,0.0
mvc-12902,Mg(FeO2)2,1.8012000000000001
mvc-12972,Mn2ZnS5,0.0
mvc-13112,Ca5Mn2(NiO6)2,0.023600000000000065
mvc-13124,Mg3V2(BiO6)2,0.0
mvc-13125,Si2NiO6,0.0
mvc-13128,AlFe3F15,0.0
mvc-13175,Ta2MnZnO8,1.1542000000000001
mvc-13423,Mg2CrSbO6,2.4273999999999996
mvc-15868,ZnCoO3,0.0
mvc-15882,Mo2O5,0.0
mvc-15888,MgVO3,0.9187000000000003
mvc-15898,MgFeO3,0.0