task_id,composition,band_gap
mp-760403,CaCd3O4,0.19190000000000013
mp-569628,CaCdAu,0.0
mp-866010,CaCdAu2,0.0
mp-866104,CaCdHg2,0.0
mp-623089,CaCdPb,0.0
mp-1103172,CaCdPd,0.0
mp-1103046,CaCdPt,0.0
mp-568695,CaCdSn,0.0
mp-1228062,CaCe(FeSb3)8,0.0
mp-865460,CaCeAg2,0.0
mp-1183527,CaCeCd2,0.0
mp-866040,CaCeHg2,0.0
mp-1183677,CaCeIn2,0.0
mp-1099085,CaCeMg14,0.0
mp-862907,CaCeMg2,0.0
mp-1099117,CaCeMg6,0.0
mp-1183507,CaCePd2,0.0
mp-1183467,CaCeRh2,0.0
mp-1044185,CaCo2(PO5)2,0.0
mvc-11307,CaCo2S5,0.0
mp-1043073,CaCo4(CuO4)3,0.0
mp-1041397,CaCo4O9,0.0
mp-1042662,CaCoBi2O7,0.0
mvc-7664,CaCoNi2O7,0.0
mvc-3994,CaCoO3,0.0
mp-1018658,CaCoSi,0.0
mvc-11865,CaCoSi2O7,0.0
mp-1043286,CaCoSn2O7,0.0
mp-1044241,CaCr2(PO5)2,0.0
mvc-12285,CaCr2(SiO4)3,0.0
mvc-11982,CaCr2O5,0.0
mp-1043224,CaCr4(CuO4)3,0.0
mvc-10962,CaCr4O8,0.0
mp-585949,CaCu,0.0
mp-1196322,CaCu10Te4(As2O17)2,0.0
mp-1040991,CaCu2(BiO4)2,0.0
mp-1047810,CaCu2(NiO4)2,0.0
mp-1041041,CaCu2(SbO4)2,0.0
mp-1041089,CaCu2(TeO4)2,0.0
mp-7466,CaCu2O3,0.0
mp-1042724,CaCu3(BiO3)4,0.0
mp-1105220,CaCu3(IrO3)4,0.0
mp-1043133,CaCu3(NiO3)4,0.0
mp-1047107,CaCu3(P2O7)2,0.04589999999999962
mp-1106325,CaCu3(PtO3)4,0.0
mp-6036,CaCu3(RuO3)4,0.0
mp-1042703,CaCu3(SbO3)4,0.0
mp-1043310,CaCu3(WO3)4,0.0
mp-1147653,CaCu3O4,0.0
mvc-10304,CaCu3P3O13,0.0
mp-1205020,CaCu4As4(HO13)2,0.0
mp-571034,CaCu9Sn4,0.0
mp-4120,CaCuAs,0.0
mp-22941,CaCuBi,0.0
mp-1041559,CaCuBi2O7,0.0
mvc-15792,CaCuF5,0.0
mp-21779,CaCuGe,0.0
mp-1042213,CaCuMo2O7,0.0
mp-4826,CaCuO2,0.0
mp-1099873,CaCuO3,0.0
mp-8432,CaCuP,0.0
mp-1096857,CaCuS2,0.0
mp-5910,CaCuSb,0.0
mp-570879,CaCuSn,0.0
mp-1183497,CaDy3,0.0
mp-1227230,CaDyAl4,0.0
mp-866228,CaDyHg2,0.0
mp-866216,CaDyRh2,0.0
mp-1183478,CaDyZn2,0.0
mp-1227226,CaErAl4,0.0
mp-865169,CaErRh2,0.0
mp-561024,CaEu2(CuO3)2,0.0
mp-1229313,CaEu2(GeO3)4,0.0
mp-1227918,CaEu2B2O7,0.0
mp-1227637,CaEu2BeO5,0.0
mp-1183604,CaEu3,0.0
mp-1178520,CaEu4O5,0.0
mp-1183508,CaEuCd2,0.0
mp-1183606,CaEuGa2,0.0
mp-1183530,CaEuHg2,0.0
mp-865553,CaEuIn2,0.0
mp-1183637,CaEuMg2,0.0
mp-755389,CaEuO2,0.0
mp-1227261,CaEuS2,0.0
mp-1227177,CaEuSi4,0.0
mp-1183609,CaEuTl2,0.0
mp-1183574,CaEuZn2,0.0
mp-1183545,CaF,0.0
mp-1183589,CaF3,0.0
mp-1214052,CaFe(MoO3)2,0.0
mp-1043643,CaFe(Si2O5)2,3.7151000000000014
mp-1196503,CaFe2(AsO5)2,0.0
mp-1041467,CaFe2(CuO4)2,0.0
mp-1214178,CaFe2(PO4)3,0.0
mp-1044202,CaFe2(PO5)2,0.0
mp-1227229,CaFe2BiO6,0.0
mvc-7721,CaFe2CoO7,0.0
mp-1228492,CaFe2CuO5,0.0
mvc-12054,CaFe2O5,0.0
mvc-14773,CaFe2S5,0.0
mp-1044389,CaFe3O7,0.0
mp-1043124,CaFe4(CuO4)3,0.0
mp-1048015,CaFe4O9,0.0
mp-1105435,CaFe5As3,0.0
mp-1080591,CaFeAsF,0.0
mvc-14231,CaFeF4,3.6648000000000014
mvc-15840,CaFeF6,0.0
mvc-11007,CaFeMoO6,0.0
mp-19115,CaFeO3,0.0
mp-1078415,CaFeSO,0.0
mp-1227116,CaFeSi2Rh,0.0
mp-1046733,CaFeSiO5,0.0
mvc-10916,CaFeWO6,0.0
mp-6914,CaGa,0.0
mp-11284,CaGa2,0.0
mp-1227781,CaGa2Cu3(RuO6)2,0.0
mp-1080561,CaGa2Ni,0.0
mp-1227072,CaGa3Pt,0.0
mp-1976,CaGa4,0.0
mp-11811,CaGaAu,0.0
mp-1227096,CaGaCu,0.0
mp-1101934,CaGaH4,0.0
mp-1213976,CaGaH5,4.089
mp-7263,CaGaN,0.0
mp-1227042,CaGaSi,0.0
mp-1101813,CaGaSn,0.0
mp-1183618,CaGdCd2,0.0
mp-867315,CaGdHg2,0.0
mp-1183613,CaGdPd2,0.0
mp-1183601,CaGdRh2,0.0
mp-1227084,CaGdS2,0.0
mp-1183638,CaGdZn2,0.0
mp-2360,CaGe,0.0
mp-4279,CaGe2O5,2.6889999999999996
mp-1105802,CaGe2Pt,0.0
mp-1205360,CaGe3,0.0
mp-21710,CaGeAu,0.0
mp-31153,CaGePt,0.0
mp-1227045,CaH2Pd,0.0
mp-1195704,CaH2S2N2O9,0.0
mp-1183578,CaH3,0.0
mp-1207169,CaH3Pd,0.0
mp-695831,CaH4(N3O)2,4.184699999999999
mp-1201650,CaH4Ir(OF3)2,0.0
mp-1214678,CaH6C6(BrO4)2,0.0
mp-1214366,CaH6C6(ClO4)2,0.0
mp-631479,CaHfBe,0.0
mp-1023227,CaHfMg6,0.0
mp-11286,CaHg,0.0
mp-30475,CaHg11,0.0
mp-863648,CaHg3,0.0
mp-1198811,CaHgC4S4N4O3,0.0
mp-1183570,CaHgO3,0.0
mp-20879,CaHgPb,0.0
mp-1048840,CaHo(BiO3)2,0.0
mp-1041207,CaHo(CoO3)2,0.0
mp-1041214,CaHo(FeO3)2,0.0
mp-1041234,CaHo(NiO3)2,0.0
mp-1049288,CaHo(SbO3)2,0.0
mp-1048836,CaHo(SnO3)2,0.0
mp-1183597,CaHo3,0.0
mp-1183561,CaHoCd2,0.0
mp-1183554,CaHoHg2,0.0
mp-39739,CaHoMn2O6,0.0
mp-1183539,CaHoO3,0.0
mp-1183569,CaHoPd2,0.0
mp-866283,CaHoRh2,0.0
mp-1048847,CaHoTi2O6,0.0
mp-1183585,CaHoZn2,0.0
mp-1183572,CaI,0.0
mp-20263,CaIn,0.0
mp-21068,CaIn2,0.0
mp-22602,CaIn2Au,0.0
mp-19968,CaIn2Cu,0.0
mp-1080611,CaIn2Ni,0.0
mp-22717,CaIn2Pd,0.0
mp-21027,CaIn2Pt,0.0
mp-1214064,CaIn2Rh,0.0
mp-672194,CaIn4Ni,0.0
mp-20108,CaIn4Pd,0.0
mp-21220,CaIn4Rh,0.0
mp-1183617,CaInAg2,0.0
mp-861960,CaInAu2,0.0
mp-570769,CaInCu4,0.0
mp-867201,CaInHg2,0.0
mp-1183543,CaInO3,0.0
mp-620571,CaInPd,0.0
mp-1183586,CaInPd2,0.0
mp-20220,CaInRh,0.0
mp-1093881,CaInRh2,0.0
mp-570436,CaIr2,0.0
mp-1183602,CaLa,0.0
mp-1227082,CaLa(CoO3)2,0.0
mp-1043900,CaLa(FeO3)2,0.0
mp-1227179,CaLa(GeIr)4,0.0
mp-1227525,CaLa2(FeO3)3,0.0
mvc-15176,CaLa2BiO6,0.0
mvc-13419,CaLa2CrO6,0.0
mvc-10933,CaLa2Mn2(FeO6)2,0.0
mp-1227500,CaLa2Mn3O9,0.0
mvc-11726,CaLa2MoO6,0.0
mvc-14545,CaLa2SbO6,0.0
mvc-15479,CaLa2WO6,0.0
mp-1227194,CaLa3(FeO3)4,0.0
mp-1227182,CaLa3Mn4O12,0.0
mp-1227076,CaLa3Si8,0.0
mp-1227252,CaLa4Ti3RuO15,0.0
mp-694926,CaLa9Ti5Cr5O30,0.0
mp-862795,CaLaAg2,0.0
mp-1227048,CaLaAl4,0.0
mp-1183579,CaLaAu2,0.0
mp-866000,CaLaCd2,0.0
mp-1048881,CaLaCrBiO6,0.0
mp-1048899,CaLaCrCoO6,0.0
mp-1040903,CaLaCrCuO6,0.0
mp-1043895,CaLaCrFeO6,0.0
mp-1097098,CaLaCu2,0.0
mp-1043917,CaLaFeAgO6,0.0
mp-1043887,CaLaFeBiO6,0.0
mp-1043894,CaLaFeCoO6,0.0
mp-1043903,CaLaFeCuO6,0.0
mp-1043874,CaLaFeNiO6,0.0
mp-1096364,CaLaGa2,0.0
mp-1227198,CaLaGaCuO5,0.0
mp-862846,CaLaHg2,0.0
mp-861643,CaLaMg2,0.0
mp-39689,CaLaMn2O6,0.0
mp-690556,CaLaMnRuO6,0.0
mp-1183562,CaLaO3,0.0
mp-1097638,CaLaPb2,0.0
mp-1097656,CaLaPd2,0.0
mp-1095715,CaLaRh2,0.0
mp-1227055,CaLaSi4,0.0
mp-1095769,CaLaTl2,0.0
mp-1043924,CaLaVFeO6,0.0
mp-862962,CaLaZn2,0.0
mp-1183559,CaLuHg2,0.0
mp-1227180,CaLuMn2O6,0.0
mp-1183596,CaLuPd2,0.0
mp-861869,CaLuRh2,0.0
mp-554198,CaMg(SiO)2,0.0
mp-1036325,CaMg14NbO16,0.0
mp-1036369,CaMg14TiO16,0.0
mp-2432,CaMg2,0.0
mp-1229186,CaMg2(SO4)3,5.8202000000000025
mp-12695,CaMg2Ni9,0.0
mp-1039383,CaMg3,0.0
mp-1039273,CaMg5,0.0
mp-1023215,CaMg6B,0.0
mp-1023164,CaMg6C,0.0
mp-1099114,CaMg6Co,0.0
mp-1023193,CaMg6Nb,0.0
mp-1099109,CaMg6Ni,0.0
mp-1023329,CaMg6Zr,0.0
mp-6585,CaMgB2O5,5.311999999999999
mp-1204390,CaMgB6O17,0.0
mp-1227127,CaMgCd,0.0
mp-1183548,CaMgCd2,0.0
mp-1182791,CaMgFeP2O13,0.0
mp-15641,CaMgGe,0.0
mp-867144,CaMgHg2,0.0
mp-1095890,CaMgIn2,0.0
mp-13434,CaMgNi4,0.0
mp-24052,CaMgNiH4,1.8730000000000002
mp-1183532,CaMgO3,0.0
mp-861738,CaMgPb,0.0
mp-1102662,CaMgPd,0.0
mp-5473,CaMgSi,0.0
mp-867266,CaMgTl2,0.0
mp-1227155,CaMgZn,0.0
mp-1080217,CaMn12O24,0.0
mp-1003318,CaMn16O32,0.0
mp-1044192,CaMn2(PO5)2,0.0
mp-1227954,CaMn25FeSi4SbO44,0.0
mp-1194089,CaMn28,0.0
mp-1227234,CaMn2Cu3(RuO6)2,0.0
mvc-14455,CaMn2S5,0.0
mp-1227327,CaMn2V4CuO12,0.0
mp-1227263,CaMn3Cu3RuO12,0.0
mp-566229,CaMn3O6,0.0
mp-1044349,CaMn3O7,0.0
mp-1106307,CaMn3V4O12,0.0
mp-510570,CaMn4(CuO4)3,0.0
mp-1042706,CaMn4O6,0.0
mp-1047836,CaMn4O9,0.0
mp-1046067,CaMn5O7,0.0
mp-541644,CaMn7O12,0.0
mp-611153,CaMnBi2,0.0
mp-1227254,CaMnCu3(RuO4)3,0.0
mp-1227251,CaMnFeGe2,0.0
mvc-12807,CaMnFeO5,0.0
mp-20235,CaMnGe,0.0
mvc-10912,CaMnIrO6,0.0
mp-1043125,CaMnNiP2O9,0.026199999999999786
mp-1227051,CaMnS2,0.3829000000000001
mp-1205343,CaMnSb2,0.0
mp-21096,CaMnSi,0.0
mp-1227223,CaMnV4(CuO6)2,0.0
mp-1058549,CaN,0.0
mp-1009657,CaN2,0.0
mp-555616,CaNb2Bi2O9,0.0
mp-1147663,CaNb2CuBrO7,0.0
mp-1227103,CaNb4O14,0.0
mp-1227240,CaNb4O8,0.0
mp-1213992,CaNbO2,0.0
mp-4957,CaNbO3,0.0
mp-1227543,CaNd2Mn3O9,0.0
mp-983582,CaNd3,0.0
mp-1227174,CaNd3Mn4O12,0.0
mp-1183555,CaNdAg2,0.0
mp-1183564,CaNdAu2,0.0
mp-867224,CaNdCd2,0.0
mp-1227058,CaNdCoO4,0.0
mp-865955,CaNdHg2,0.0
mp-1227166,CaNdMn2O6,0.0
mp-1227105,CaNdNb2O7,0.0
mp-866227,CaNdRh2,0.0
mp-866220,CaNdZn2,0.0
mp-1059707,CaNi,0.0
mp-2295,CaNi2,0.0
mp-1040914,CaNi2(PO4)2,0.0
mvc-9149,CaNi2(PO5)2,0.0
mp-1043339,CaNi2O5,0.0
mp-1043475,CaNi2P2O9,0.0
mvc-11425,CaNi2S5,0.0
mvc-9192,CaNi3O7,0.0
mp-8307,CaNi4B,0.0
mvc-10599,CaNi4O9,0.0
mp-1078093,CaNi5H,0.0
mp-1077470,CaNiGe,0.0
mp-13512,CaNiGe2,0.0
mp-1095188,CaNiGeH,0.0
mp-1207078,CaNiH3,0.0
mp-1043759,CaNiMoP2O9,0.0
mp-28645,CaNiN,0.0
mp-1043542,CaNiP2WO9,0.0
mp-1043551,CaNiSbP2O9,0.0
mp-961667,CaNiTe,0.0
mp-1183615,CaNp,0.0
mp-1227243,CaNp(PO4)2,0.19919999999999932
mp-1182382,CaO10,0.0
mp-1183599,CaOs3,0.0
mp-632758,CaP(H2O3)2,0.0
mp-24361,CaP2(HO2)4,5.6496999999999975
mp-1205053,CaP3NO9,0.0
mp-10677,CaPAu,0.0
mp-1182012,CaPBrO8,0.0
mp-1190684,CaPO4,0.0
mp-28339,CaPPt,0.0
mp-20549,CaPb3,0.0
mp-1096267,CaPbAu2,0.0
mp-1227206,CaPbSe2,0.0
mp-213,CaPd,0.0
mp-833,CaPd2,0.0
mp-3315,CaPd3O4,0.0
mp-11826,CaPd5,0.0
mp-672254,CaPdPb,0.0
mp-1183605,CaPm3,0.0
mp-1183552,CaPmAg2,0.0
mp-862882,CaPmAu2,0.0
mp-862881,CaPmCd2,0.0
mp-862883,CaPmHg2,0.0
mp-1183567,CaPmMg2,0.0
mp-862884,CaPmPd2,0.0
mp-862886,CaPmPt2,0.0
mp-862885,CaPmRh2,0.0
mp-862888,CaPmZn2,0.0
mp-1044462,CaPr(AgO3)2,0.0
mp-1044460,CaPr(BiO3)2,0.0
mp-1044741,CaPr(CoO3)2,0.0
mp-1044464,CaPr(CuO3)2,0.0
mp-1044754,CaPr(FeO3)2,0.0
mp-1044733,CaPr(NiO3)2,0.0
mp-1044443,CaPr(SbO3)2,0.0
mp-1044508,CaPr(SnO3)2,0.0
mp-1183600,CaPr3,0.0
mp-1227199,CaPr3(CoO3)4,0.0
mp-1227161,CaPr3(FeO3)4,0.0
mp-866060,CaPrAg2,0.0
mp-1227113,CaPrAl3O7,4.265499999999999
mp-867257,CaPrCd2,0.0
mp-1227079,CaPrCoO4,0.0
mp-1044723,CaPrCr2O6,0.0
mp-867217,CaPrHg2,0.0
mp-40630,CaPrMn2O6,0.0
mp-756708,CaPrO3,0.0
mp-1183584,CaPrRh2,0.0
mp-1044426,CaPrTi2O6,0.0
mp-1044725,CaPrV2O6,0.0
mp-842,CaPt2,0.0
mp-755647,CaPt3O4,0.0
mp-30481,CaPt5,0.0
mp-8255,CaPtF6,2.643
mp-864998,CaPuRh2,0.0
mp-631420,CaRe2Si,0.0
mp-1194506,CaRe3(Se2O3)2,0.0
mp-631458,CaReBi,0.0
mp-571262,CaRh2,0.0
mp-9928,CaRhF6,0.0
mp-1078659,CaRhO3,0.0
mp-20947,CaRuO3,0.0
mp-7493,CaSb2,0.0
mp-1043569,CaSb2(PO5)2,0.0
mvc-4397,CaSb2O5,0.0
mvc-12321,CaSb2S5,0.0
mp-1043964,CaSb3O7,0.0
mp-16245,CaSbAu,0.0
mvc-15694,CaSbF6,0.0
mp-1213959,CaSbPd,0.0
mp-1183547,CaSbPd2,0.0
mp-8487,CaSbPt,0.0
mp-1096478,CaScHg2,0.0
mp-1097468,CaScIn2,0.0
mp-1183534,CaScO3,0.0
mp-1097440,CaScRh2,0.0
mp-1096448,CaScTl2,0.0
mp-1563,CaSi,0.0
mp-2699,CaSi2,0.0
mp-1205346,CaSi3,0.0
mp-1068653,CaSi3Ir,0.0
mp-1069604,CaSi3Pt,0.0
mvc-12761,CaSi4(NiO6)2,0.0
mp-1191649,CaSi7Ir3,0.0
mp-10797,CaSiNi2,0.0
mp-8842,CaSiPd,0.0
mp-4478,CaSiPt,0.0
mp-1227043,CaSm2S3,0.0
mp-1183610,CaSm3,0.0
mp-1183560,CaSmAg2,0.0
mp-1227030,CaSmAl4,0.0
mp-1227050,CaSmB12,0.0
mp-864620,CaSmCd2,0.0
mp-1227147,CaSmCoO4,0.0
mp-620364,CaSmCuClO3,0.0
mp-866014,CaSmHg2,0.0
mp-1183908,CaSmIn2,0.0
mp-1183557,CaSmMg2,0.0
mp-1227151,CaSmMn2O6,0.0
mp-1183576,CaSmPd2,0.0
mp-866280,CaSmRh2,0.0
mp-866061,CaSmZn2,0.0
mp-2450,CaSn,0.0
mp-11957,CaSn2Ir,0.0
mp-11958,CaSn2Pd,0.0
mp-11959,CaSn2Rh,0.0
mp-11290,CaSn3,0.0
mp-1100376,CaSn3S7,0.0
mp-1045878,CaSn5O7,0.0
mp-29561,CaSnAu,0.0
mp-977359,CaSnAu2,0.0
mp-1042412,CaSnBiO5,0.0
mp-1019104,CaSnHg,0.0
mvc-4868,CaSnO2,0.0
mp-30437,CaSnPd,0.0
mp-1102040,CaSnPt,0.0
mp-861935,CaSnRh2,0.0
mp-631411,CaTa2Tl,0.0
mp-1227122,CaTa4O14,0.0
mp-631395,CaTaTc,0.0
mp-1227302,CaTb2Mn3O9,0.0
mp-1232418,CaTb3,0.0
mp-1227131,CaTb3Mn4O12,0.0
mp-20154,CaTbF6,0.0
mp-1183566,CaTbHg2,0.0
mp-1227156,CaTbMn2O6,0.0
mp-1183553,CaTbPd2,0.0
mp-1183546,CaTbRh2,0.0
mp-1188853,CaTcO3,0.0
mp-866282,CaThRh2,0.0
mp-1043438,CaTi(Si2O5)2,0.0
mp-1044634,CaTi2(PO4)2,0.0
mp-1048301,CaTi2Be3(SiO4)3,0.0005000000000006113
mvc-11942,CaTi2Fe2(PO4)6,0.0
mp-1200872,CaTi2FeO6,0.0
mp-3463,CaTi2O4,0.0
mp-1181883,CaTi2O6,0.0
mp-1044885,CaTi2P2O9,0.0
mp-1041164,CaTi3P3O13,0.0
mp-22592,CaTi4(CuO4)3,0.0
mp-1046693,CaTi4O6,0.0
mvc-2210,CaTi5O7,0.0
mp-1043855,CaTiBiO5,0.0
mp-1041194,CaTiS2,0.0
mp-2861,CaTl,0.0
mp-984769,CaTl2Cd,0.0
mp-526,CaTl3,0.0
mp-1096652,CaTlAg2,0.0
mp-1097576,CaTlAu2,0.0
mp-1093876,CaTlPd2,0.0
mp-984791,CaTmCd2,0.0
mp-1183581,CaTmHg2,0.0
mp-1183672,CaTmIn2,0.0
mp-1227160,CaTmMn2O6,0.0
mp-1183538,CaTmO3,0.0
mp-1183593,CaTmPd2,0.0
mp-866226,CaTmPt2,0.0
mp-1183550,CaTmRh2,0.0
mp-1183568,CaTmZn2,0.0
mp-1078571,CaU2(PO2)2,0.0
mp-1228040,CaU2(PO9)2,0.0
mp-1213952,CaU2S5,0.0
mp-1182619,CaU4O17,0.0
mp-33320,CaUS2,0.0
mp-1227094,CaUTi2O7,0.0
mvc-11311,CaV2S5,0.0
mp-19347,CaV3O7,0.0
mp-1189284,CaV4(CoO4)3,0.0
mp-542267,CaV4(CuO4)3,0.0
mp-1188629,CaV4(PdO4)3,0.0
mp-1227505,CaV4Co(CuO6)2,0.0
mvc-15849,CaVF6,0.0
mp-1067260,CaW,0.0
mvc-2857,CaWO2,0.0
mp-1214430,CaY(CO4)2,0.039199999999999985
mp-1227117,CaY3Ti4O12,0.0
mp-1213913,CaY4Sb3O14,0.0
mp-1183556,CaYCd2,0.0
mp-866223,CaYHg2,0.0
mp-1097496,CaYIn2,0.0
mp-1036378,CaYMg14O16,0.0
mp-1096179,CaYMg2,0.0
mp-1023319,CaYMg6,0.0
mp-1227126,CaYMn2O6,0.0
mp-1227108,CaYNb2O7,0.0
mp-1183544,CaYO3,0.0
mp-1183551,CaYPd2,0.0
mp-1183571,CaYPt2,0.0
mp-865002,CaYRh2,0.0
mp-1213910,CaYSiO5,0.0
mp-1227099,CaYTi2O6,0.0
mp-1183583,CaYZn2,0.0
mp-1227219,CaYb2(GeO3)4,0.0
mp-22161,CaYb2O4,0.0
mp-1227047,CaYb3,0.0
mp-1227085,CaYb3(InGe2)2,0.0
mp-1227028,CaYbAl4,0.0
mp-1183573,CaYbCd2,0.0
mp-1183612,CaYbEu2,0.0
mp-1183565,CaYbGa2,0.0
mp-1183588,CaYbHg2,0.0
mp-1183625,CaYbIn2,0.0
mp-541277,CaYbInS4,0.0
mp-541276,CaYbInSe4,0.0
mp-1183582,CaYbPb2,0.0
mp-1183592,CaYbPd2,0.0
mp-1183577,CaYbZn2,0.0
mp-30483,CaZn,0.0
mp-18567,CaZn11,0.0
mp-672227,CaZn13,0.0
mp-1236921,CaZn2(BrO)6,0.0
mp-634817,CaZn2(PO)2,0.0
mp-1181954,CaZn2O8,0.0
mp-1227020,CaZnAg,0.0
mp-1227168,CaZnFe(AsO5)2,0.0
mp-16263,CaZnGe,0.0
mp-1183540,CaZnO3,0.0
mp-1096880,CaZnPb,0.0
mp-1213948,CaZnPd,0.0
mp-16266,CaZnSi,0.0
mp-31160,CaZnSn,0.0
mp-554495,CaZr(PO4)2,4.330299999999999
mp-1025456,CaZrF6,6.6727000000000025
mp-1029267,CaZrN2,0.19179999999999967
mp-631394,CaZrPd,0.0
mp-861662,CaZrRh2,0.0
mp-1190591,Cd(AsO4)4,0.0
mp-1214070,Cd(C5N)12,0.0
mp-1147639,Cd(Cu3O4)2,0.0
mp-1096867,Cd(CuSe)2,0.0
mp-1104677,Cd(Mo3S4)2,0.0
mp-1103966,Cd(Mo3Se4)2,0.0
mp-1181997,Cd(N2Cl3)2,0.0
mp-1101823,Cd(N2O3)2,0.0
mp-1227215,Cd(Pt3O4)3,0.0
mp-685363,Cd18Sn19O56,0.0
mp-1193812,Cd2(GeO3)3,0.0
mp-607960,Cd27Pd8,0.0
mp-31170,Cd2AgAu,0.0
mp-1096709,Cd2AgPd,0.0
mp-1183537,Cd2AgPt,0.0
mp-1226971,Cd2Bi2(TeSe)3,0.0
mp-1213904,Cd2ClO3,0.0
mp-1096359,Cd2CuPt,0.0
mp-1229296,Cd2Fe3Cu10(SnSe4)5,0.0
mp-11299,Cd2Hg,0.0
mp-1097224,Cd2InBi,0.0
mp-1227031,Cd2InCuSe4,0.05509999999999994
mp-1198018,Cd2Mo15Se19,0.0
mp-5950,Cd2Os2O7,0.0
mp-1213851,Cd2P,0.0
mp-1096620,Cd2PdPt,0.0
mp-865926,Cd2PdRh,0.0
mp-1093626,Cd2PtAu,0.0
mp-865929,Cd2PtRh,0.0
mp-16783,Cd2Re2O7,0.0
mp-1183541,Cd2RhAu,0.0
mp-505552,Cd2Ru2O7,0.0
mp-1199437,Cd2Sb5O2F31,0.0
mp-1181950,Cd2Se3N2O15,0.0
mp-1192130,Cd2Tc2O7,0.0
mp-675991,Cd3(BiO2)10,0.0
mp-759817,Cd3(Pt3O4)10,0.0
mp-1226933,Cd3Ag,0.0
mp-1183587,Cd3As,0.0
mp-30370,Cd3Au,0.0
mp-1226978,Cd3Au8,0.0
mp-1183580,Cd3B,0.0
mp-1183658,Cd3Bi,0.0
mp-1183630,Cd3Fe,0.0
mp-1227787,Cd3Fe2Cu10(SnSe4)5,0.0
mp-1226907,Cd3FeS4,0.0
mp-1226917,Cd3FeSe4,0.0
mp-1183662,Cd3Ga,0.0
mp-1213947,Cd3Ga5O12,0.0
mp-1183644,Cd3Ge,0.0
mp-1189546,Cd3GeO6,0.0
mp-1183661,Cd3Hg,0.0
mp-12661,Cd3In,0.0
mp-1226957,Cd3InAu12,0.0
mp-1183626,Cd3Ir,0.0
mp-569957,Cd3N2,0.0
mp-1227365,Cd3NO8,0.0
mp-1183624,Cd3Ni,0.0
mp-1183653,Cd3Os,0.0
mp-1183632,Cd3P,0.0
mp-1183663,Cd3Pb,0.0
mp-1183635,Cd3Pd,0.0
mp-1183641,Cd3Pt,0.0
mp-1183665,Cd3Se,0.0
mp-1183651,Cd3Te,0.0
mp-1199295,Cd41Ir8,0.0
mp-1227077,Cd43Pd8,0.0
mp-1229234,Cd4FeCu10(SnSe4)5,0.0
mp-1226829,Cd4InTe4As,0.0
mp-1202822,Cd5(AsO5)4,0.0
mp-1191469,Cd5(NO8)2,0.0
mp-1197040,Cd5(PO5)4,0.0
mp-1214676,Cd53Pd16,0.0
mp-30371,Cd5Au3,0.0
mp-30696,Cd5Cu2,0.0
mp-1213988,Cd5H2(NO7)2,0.0
mp-1229280,Cd5Ni,0.0
mp-769964,Cd6(CoO3)5,0.0
mp-1198745,Cd6P7NO24,0.0
mp-669510,Cd6Sb5,0.0
mp-647220,Cd85Pd27,0.0
mp-567857,Cd8Ag5,0.0
mp-1193415,Cd8Au5,0.0
mp-1227291,Cd8Cu7P30,0.0
mp-703302,Cd9(InSe2)20,0.0
mp-983602,CdAg2Au,0.0
mp-1226773,CdAg2SnS4,0.0
mp-1183627,CdAg3,0.0
mp-1183634,CdAgAu2,0.0
mp-996963,CdAgO2,0.0
mp-867260,CdAgPd2,0.0
mp-542065,CdAgSb,0.0
mp-1183659,CdAs3,0.0
mp-1025311,CdAsPt5,0.0
mp-16886,CdAu,0.0
mp-865144,CdAu3,0.0
mp-1072852,CdB2,0.0
mp-1183631,CdBO3,0.0
mp-1183657,CdBi3,0.0
mp-34421,CdBi3O7,0.0
mp-1102017,CdBrO,0.0
mp-1006887,CdC,0.0
mp-1102642,CdCBr3N,0.0
mp-1080124,CdCl4,0.0
mp-1077089,CdClO,0.0
mp-1017553,CdCo3N,0.0
mp-1181881,CdCoCu3Se4,0.0
mp-770662,CdCoO3,0.0
mp-568315,CdCu2,0.0
mp-1214264,CdCu2(SO4)2,0.0
mp-1078909,CdCu2GeTe4,0.0
mp-754978,CdCu2O3,0.0
mp-1093832,CdCu2Rh,0.0
mp-1078292,CdCu2SnS4,0.0
mp-16565,CdCu2SnSe4,0.0
mp-1091413,CdCu2SnTe4,0.0
mp-1183623,CdCu3,0.0
mp-1181879,CdCu3NiSe4,0.0
mp-1201664,CdCu4H14(SO9)2,0.0
mp-568800,CdCuSb,0.0
mp-1228572,CdFe4Cu10(SnSe4)5,0.0
mp-1226945,CdFeCu4(SnSe4)2,0.0
mp-777146,CdFeO3,0.0
mp-1226715,CdFeS2,0.0
mp-1181874,CdGaCu3Se4,0.0
mp-1097377,CdGaPd2,0.0
mp-861909,CdGaRh2,0.0
mp-1183649,CdGe3,0.0
mp-1213925,CdGePO7,0.0
mp-1183656,CdH,0.0
mp-697264,CdH2SeO4,3.7960000000000003
mp-698392,CdH9C3NCl3,0.0
mp-1096862,CdHCl3,0.0
mp-723054,CdHSeNO6,0.0
mp-30488,CdHg2,0.0
mp-1183652,CdHg3,0.0
mp-1120716,CdHg3Te4,0.0
mp-557580,CdHg4C6S6(Br2N3)2,1.866
mp-1226794,CdHg4Te5,0.0
mp-1183640,CdHgPd2,0.0
mp-1188137,CdHgSBr,0.0
mp-1226733,CdHgSe2,0.0
mp-1226741,CdHgTe2,0.0
mp-1191056,CdIO4,0.0
mp-1181966,CdIO9,0.0
mp-1097339,CdIn2Bi,0.0
mp-1096341,CdIn2Ga,0.0
mp-1097201,CdIn2Hg,0.0
mp-1226759,CdIn2SnAu2,0.0
mp-1183676,CdIn3,0.0
mp-1226770,CdIn4TeAs4,0.0
mp-1096114,CdInAg2,0.0
mp-1226742,CdInAsSe,0.0
mp-1097590,CdInHg2,0.0
mp-862374,CdInPd2,0.0
mp-977367,CdInRh2,0.0
mp-20519,CdInS2,0.0
mp-1016828,CdIrO3,0.0
mp-631388,CdIrRu,0.0
mp-1213941,CdMoO2,0.0
mp-1008918,CdN,0.0
mp-1213955,CdNO5,0.0
mp-985556,CdNi,0.0
mp-1206343,CdNi3C,0.0
mp-1017554,CdNi3N,0.0
mp-1226706,CdNiO2,0.0
mp-631410,CdNiP,0.0
mp-1213862,CdOs2(NO2)4,0.0
mp-1016882,CdOsO3,0.0
mp-1213892,CdP3NO9,0.0
mp-1227639,CdP6Pb9O26,0.0
mp-631403,CdPOs2,0.0
mp-1078100,CdPPd5,0.0
mp-1025187,CdPPt5,0.0
mp-1183660,CdPb3,0.0
mp-685257,CdPbO3,0.0
mp-1201044,CdPbO6,0.0
mp-1226761,CdPbS2,1.0928999999999989
mp-1183633,CdPd2Au,0.0
mp-1232324,CdPd2O3,0.0
mp-1096175,CdPd2Pt,0.0
mp-865985,CdPd3,0.0
mp-13675,CdPd3O4,0.0
mp-1025371,CdPd5Se,0.0
mp-1067236,CdPt3,0.0
mp-1213850,CdPt3O4,0.0
mp-1104869,CdRe2(NO2)4,0.0
mp-1016875,CdRhO3,0.0
mp-1016849,CdRuO3,0.0
mp-17586,CdS2O7,4.036099999999999
mp-1192703,CdSO5,0.0
mp-1183739,CdSb3,0.0
mp-16246,CdSbAu,0.0
mp-1183726,CdSn,0.0
mp-1183720,CdSn3,0.0
mp-1226720,CdSnAu,0.0
mp-861877,CdSnRh2,0.0
mp-1226740,CdSnTe2,0.0
mp-1189706,CdTcO3,0.0
mp-1226705,CdTe2Pb,0.0
mp-12063,Ce(AgGe)2,0.0
mp-16966,Ce(Al10Co)2,0.0
mp-3910,Ce(Al10Cr)2,0.0
mp-16486,Ce(Al2Fe)4,0.0
mp-607077,Ce(Al4Fe)2,0.0
mp-1193938,Ce(Al5Fe)2,0.0
mp-31364,Ce(Al5Ru)2,0.0
mp-1078886,Ce(AlAu)2,0.0
mp-3303,Ce(AlGa)2,0.0
mp-7101,Ce(AlGe)2,0.0
mp-1078340,Ce(AlPd)2,0.0
mp-1207106,Ce(AlSi)2,0.0
mp-3286,Ce(AlZn)2,0.0
mp-1189855,Ce(As3Os)4,0.0
mp-567375,Ce(AsPd)2,0.0
mp-1087498,Ce(AsRh)2,0.0
mp-20908,Ce(BC)2,0.0
mp-8680,Ce(BIr)2,0.0
mp-1080734,Ce(BOs)2,0.0
mp-1106048,Ce(BRh)4,0.0
mp-15588,Ce(BRu)2,0.0
mp-1201565,Ce(BRu)4,0.0
mp-1203677,Ce(Cd10Ni)2,0.0
mp-1197565,Ce(Cd10Pd)2,0.0
mp-768684,Ce(ClO4)3,0.0
mp-1205398,Ce(Co2B)6,0.0
mp-568182,Ce(CoAs)2,0.0
mp-22165,Ce(CoB)4,0.0
mp-5820,Ce(CoP)2,0.0
mp-1227093,Ce(CoP3)16,0.0
mp-3437,Ce(CoSi)2,0.0
mp-2873,Ce(CrB3)2,0.0
mp-1207209,Ce(CrSi)2,0.0
mp-1214035,Ce(Cu2P)2,0.0
mp-1006321,Ce(CuSb)2,0.0
mp-5452,Ce(CuSi)2,0.0
mp-1080173,Ce(CuSn)2,0.0
mp-1189064,Ce(ErS2)3,0.0
mp-1006322,Ce(FeB)4,0.03910000000000037
mp-21882,Ce(FeGe)2,0.0
mp-6957,Ce(FeP)2,0.0
mp-3035,Ce(FeSi)2,0.0
mp-1095071,Ce(GaPd)2,0.0
mp-1103596,Ce(Ge2Rh3)2,0.0
mp-1190040,Ce(Ge3Pt)4,0.0
mp-1068908,Ce(GeAu)2,0.0
mp-510315,Ce(GeIr)2,0.0
mp-13467,Ce(GePd)2,0.0
mp-20400,Ce(GePt)2,0.0
mp-5577,Ce(GeRh)2,0.0
mp-22343,Ce(GeRu)2,0.0
mp-625915,Ce(HO)3,0.0
mp-1189290,Ce(HoS2)3,0.0
mp-21537,Ce(In2Au)2,0.0
mp-641911,Ce(In2Pd)2,0.0
mp-602328,Ce(InPt)2,0.0
mp-1105574,Ce(LuS2)3,0.0
mp-1183866,Ce(Mg4Al3)4,0.0
mp-19865,Ce(MgSi)2,0.0
mp-16487,Ce(MnAl2)4,0.0
mp-1226889,Ce(MnCo2)4,0.0
mp-21089,Ce(MnGe)2,0.0
mp-2965,Ce(MnSi)2,0.0
mp-1201969,Ce(N4O9)2,0.0
mp-37199,Ce(NdS2)2,0.0
mp-21695,Ce(Ni2B)6,0.0
mp-582274,Ce(Ni5P2)2,0.0
mp-610645,Ce(NiAs)2,0.0
mp-3325,Ce(NiGe)2,0.0
mp-569697,Ce(NiP)2,0.0
mp-1078924,Ce(NiSb)2,0.0
mp-1078794,Ce(NiSn)2,0.0
mp-1079211,Ce(PIr)2,0.0
mp-1207218,Ce(PPd)2,0.0
mp-1205866,Ce(PPt)2,0.0
mp-607725,Ce(PPt2)2,0.0
mp-505502,Ce(PRh)2,0.0
mp-574244,Ce(PRu)2,0.0
mp-1226961,Ce(PrS2)2,0.0
mp-27861,Ce(Re2Si)2,0.0
mp-1105726,Ce(Sb3Os)4,0.0