task_id,pretty_formula,band_gap
mp-769472,Li11(NiO4)2,0.0
mp-769493,Na3Ni2P2(CO7)2,0.0
mp-769495,Na5Ni2P2(CO7)2,0.0
mp-769507,Li10CoNi9O20,0.0
mp-769514,Li9Mn12Cu3O32,0.0
mp-769516,Na2NiPCO7,0.0
mp-769525,TiV2Fe3(PO4)6,0.0
mp-769526,Li7MgNi7O16,0.10109999999999975
mp-769532,Na4V2C4SO16,0.44399999999999995
mp-772448,Mn3Co3(TeO8)2,0.0
mp-775455,Li4Mn2Fe3Cu3O16,0.0
mp-775456,Mn3Ni2Te3O16,0.0
mp-775460,Li2CrFe3O8,0.0
mp-775463,V3Ni(PO4)6,0.0
mp-775465,MnSb3(PO4)6,0.0
mp-775468,Mn3V(PO4)6,0.0
mp-775471,Li3V4FeO12,0.0
mp-775473,Na2NiPCO7,0.00019999999999997797
mp-775474,Li4Mn3Cu3(SnO8)2,0.0
mp-775489,CrP6(WO8)3,2.067
mp-775502,Li4Ti2Mn4Cr3O18,0.0
mp-775508,Li4Mn3Cu2Sn3O16,0.10020000000000007
mp-775509,Li4CrTe2WO12,0.0
mp-775511,KLi(WO3)6,0.0
mp-775517,TiNi3(PO4)4,0.0
mp-775521,Li4Cr2Cu3Sb3O16,0.0
mp-775529,Na3Mn2P2(CO7)2,0.0
mp-775536,LiV4CuO12,0.35030000000000006
mp-775546,Li4Mn(WO4)3,0.0
mp-775565,Li4Nb2V3Cu3O16,0.0
mp-775568,Na3Ni2P2(CO7)2,0.0
mp-775578,Li4Ti2Co3Sb3O16,0.0
mp-775589,Ti3CuSn2(PO4)6,0.0
mp-775598,VFe3(PO4)6,0.0
mp-775606,Li4Mn3Co2Sn3O16,0.0
mp-775609,V3CoSn2(PO4)6,0.0
mp-775617,Li4Ti2Nb3Ni3O16,0.0
mp-775619,Na2NiPCO7,0.04859999999999998
mp-775625,Na3Mn2P2(CO7)2,0.0
mp-775631,Li4Fe3Cu3(SnO8)2,0.0
mp-775648,Li2MnV4CuO12,0.0
mp-775649,Fe2Sn(PO4)3,0.05940000000000012
mp-780216,Li5Fe3O8,0.0
mp-780243,Li5Ti2Cu3O10,0.19169999999999998
mp-780294,Li3Mn2Fe(BO3)3,2.6411000000000002
mp-780310,Fe5(O4F)2,0.0
mp-780315,Li4Cr2Fe3O10,0.9619999999999997
mp-780328,Fe5(O4F)2,0.0
mp-780332,Li2VP4(HO2)8,2.7262999999999997
mp-780392,Li5Cu(PO4)2,1.8461999999999996
mp-780396,SrCa2I6,3.7110000000000003
mp-780483,Li2MnFe(BO3)2,2.6393999999999997
mp-780486,Mn6O5F7,0.0
mp-780491,Fe4O3F5,0.9574000000000003
mp-780497,Li2MnFe(BO3)2,2.6795999999999998
mp-780499,Li2MnFe(BO3)2,3.0423999999999998
mp-780508,Fe5O7F3,0.0
mp-780510,LiMn3(BO3)3,0.28949999999999987
mp-780518,Li5(NiO2)4,0.0
mp-780519,Fe3(OF2)2,1.1624999999999999
mp-780525,Mn6OF11,0.44010000000000005
mp-780526,Li2MnCSO7,4.0493999999999994
mp-780540,Fe6O11F,0.0
mp-780541,Fe4O7F,0.0
mp-780542,Li2Mn3CrO8,0.0
mp-862602,ScAlCo2,0.0
mp-972470,V2Cu3Pb(ClO4)2,0.0
mp-974667,Rb2H2C2O5,3.4116999999999997
mp-974768,Rb2Mg,0.0
mp-976378,La3Sn4,0.0
mp-976587,KP2AuS7,1.5375999999999999
mp-997109,PbAuO2,0.37270000000000003
mp-998194,RbInBr3,0.0
mp-998314,CsInI3,0.0
mp-998391,RbTlBr3,0.0
mp-998434,RbTlF3,0.0
mp-998535,InPbCl3,2.9027999999999996
mp-998592,RbCaI3,3.5984999999999996
mp-1022672,Mg6ZnB,0.0
mp-1022684,YMg6C,0.0
mp-1022712,CsMg6Zn,0.0
mp-1022713,YMg6C,0.0
mp-1022718,CsMg6Zn,0.0
mp-1022924,LaYMg6,0.0
mp-1023164,CaMg6C,0.0
mp-1024947,YbBi2,0.0
mp-1025231,Pr2CrS4,0.0
mp-1025285,Ce2Re2Si2C,0.0
mp-1025289,Ce2Fe2Si2C,0.0
mp-1025290,La2Fe2Si2C,0.0
mp-1025318,Co(NiSe2)2,0.0
mp-1025320,Ho2Re2Si2C,0.0
mp-1025322,V(CoSe2)2,0.0
mp-1025337,Tl2CdTe4,0.0
mp-1025341,Si2NiSe4,0.0
mp-1025347,Ti2CoSe4,0.0
mp-1025357,Lu2Fe2Si2C,0.0
mp-1025361,Gd2Re2Si2C,0.0
mp-1025362,Er2Re2Si2C,0.0
mp-1025363,Dy2Mo2C3,0.0
mp-1025368,Ti2VS4,0.0
mp-1025369,Tm2Mo2C3,0.0
mp-1025372,Y2Cr2C3,0.0
mp-1025378,V2FeTe4,0.0
mp-1025380,Cr2FeTe4,0.0
mp-1025382,Th2Fe2Si2C,0.0
mp-1025384,Pr2Re2Si2C,0.0
mp-1025388,YbCl3,0.0
mp-1025389,LuAl2Ni,0.0
mp-1025390,LaSi2Ag,0.0
mp-1025395,HoTe3,0.0
mp-1025399,LaAu,0.0
mp-1025400,YbCl3,0.0
mp-1025409,TmPt,0.0
mp-1025411,CeSi2Rh,0.0
mp-1025413,ThSi2Ni,0.0
mp-1025418,LaTe3,0.0
mp-1025420,SmSi2Ni,0.0
mp-1025422,HoGe3,0.0
mp-1025424,TmMnSi2,0.0
mp-1025426,CeI3,0.023299999999999876
mp-1025431,SmPt,0.0
mp-1025438,LuPt,0.0
mp-1025442,IrI3,1.2786999999999997
mp-1025444,ErPt,0.0
mp-1025448,YPt,0.0
mp-1025450,CeFeSi2,0.0
mp-1025453,SmSi2Rh,0.0
mp-1025502,TiCuF6,0.10159999999999991
mp-1026465,Mg14SbC,0.0
mp-1026540,Mg14GaC,0.0
mp-1026547,Mg14BC,0.0
mp-1026590,Mg14MoC,0.0
mp-1026734,Mg14SnC,0.0
mp-1026882,Mg14CuSi,0.0
mp-1028019,Mg14ZnC,0.0
mp-1028143,Mg14MnC,0.0
mp-1028387,Mg14FeC,0.0
mp-287,UF4,0.0
mp-2884,Cs2Mn3S4,0.47639999999999993
mp-2932,Y2Si4Mo3,0.0
mp-3073,Sm2Te4O11,3.2853999999999997
mp-3172,Ag3AuSe2,0.026100000000000012
mp-3177,Nd(CuGe)2,0.0
mp-3239,Er(CoSi)2,0.0
mp-3245,SnP7Au3,0.028100000000000236
mp-3709,Tb(CoGe)2,0.0
mp-3718,ThTeO,0.24179999999999957
mp-3788,SrAl4O7,3.7468000000000004
mp-3790,SrNb8O14,0.25839999999999996
mp-3816,Er6Ni2Sn,0.0
mp-5080,Ba5Mg18Si13,0.0
mp-5125,Na3FeSe3,0.0
mp-5193,SrZrS3,1.1848000000000005
mp-5226,K2SeO4,3.5911999999999997
mp-5279,Ca3TeO6,3.2468999999999997
mp-5589,Sr(MnP)2,0.0
mp-5605,Ce(SiAg)2,0.0
mp-566,CeP5,0.0
mp-5711,Pr7Al7Co6,0.0
mp-5716,Ba(Mo3S4)2,0.0
mp-5732,La2Si2O7,4.781899999999999
mp-5756,Cu3PSe4,0.0026000000000001577
mp-5766,CeCuS2,0.0
mp-5807,Mn(SbS2)2,0.0
mp-5883,CsMo6Se7,0.0
mp-5887,EuNiGe,0.0
mp-5909,Zn2GeO4,1.9751999999999998
mp-5915,TlNO3,2.7866999999999997
mp-5925,Nd2MgNi2,0.0
mp-5934,Yb(CuSi)2,0.0
mp-5936,La(SiRh)2,0.0
mp-5938,SrCu2O3,0.0
mp-5948,Th(CuSi)2,0.0
mp-5950,Cd2Os2O7,0.0
mp-5971,YBPt2,0.0
mp-5982,La(NiAs)2,0.0
mp-5983,Tm(CoGe)2,0.0
mp-5992,LaB2Ir2C,0.0
mp-6036,CaCu3(RuO3)4,0.0
mp-6037,Ba2SmSbO6,3.6053999999999995
mp-6059,Cs2KYF6,6.464
mp-606,U3As4,0.0
mp-6075,Ba2Li(BO2)5,4.951700000000001
mp-6078,Na2Cd3Si3O10,2.4467999999999996
mp-6088,LaCuSO,1.6691000000000003
mp-614986,BaYb2NiO5,0.0
mp-621994,NdOsO4,0.0
mp-622211,Ba2EuCu3O7,0.0
mp-623035,FeSbPt,0.0
mp-623460,GdSn3,0.0
mp-624187,Y5Bi3,0.0
mp-625530,H2W2O7,1.5879999999999999
mp-626155,H4N2O3,0.0
mp-626303,MnHO2,0.0
mp-626361,Pr(HO)3,3.8467999999999996
mp-626542,H3NO,0.28659999999999997
mp-626751,Mo3(HO5)2,0.0
mp-626913,V3(HO4)2,1.4669999999999999
mp-627023,Ba(HO)2,4.439900000000001
mp-627209,VHO3,0.0
mp-627405,La11(Ni2Ge3)2,0.0
mp-628216,Cs2KMn(CN)6,0.0
mp-628583,NaC2N3,4.5207999999999995
mp-628664,Ce2P3Au,0.0
mp-630019,GdAl2Ni,0.0
mp-630234,Li2Ti3(BiO3)4,0.0
mp-630265,U3(Si3Pd10)2,0.0
mp-630711,CsGdSiS4,1.7265000000000001
mp-630949,NaClO3,0.0
mp-632490,Eu2SnS4,0.0
mp-648448,Eu2GeO5,0.0
mp-648999,Nb5P3,0.0
mp-649331,Sm11(CoB)40,0.0
mp-649419,Sr2(PPd)3,0.0
mp-649479,Ca5(InSb3)2,0.22820000000000018
mp-649521,Si2Ni5P3,0.0
mp-649704,Ce9(Ni13P6)2,0.0
mp-673663,CuGe2P3,0.0
mp-673673,NdO3,0.0
mp-673678,Ba2In2O5,0.0
mp-673679,Li3MnP2,0.0
mp-673800,U11S20,0.0
mp-675576,K(FeAs)2,0.0
mp-675590,Cu6BiS6,0.0
mp-675593,K3(VS2)5,0.0
mp-675637,Ge5(Te4As)2,0.0
mp-675766,K4CO6,0.11829999999999999
mp-679983,CsP4N7,3.661599999999999
mp-680045,K2CeAg3Te4,0.0
mp-680163,CdI2,2.3316999999999997
mp-680165,Ba17Yb16Zn8Pt4O57,0.0
mp-680207,Gd2(FeB)7,0.0
mp-680214,Bi8Se7,0.0
mp-680220,Sr(Ni5P3)2,0.0
mp-686370,Ba6Tb3Nb(SnO9)2,0.0
mp-686547,Al3H36C12N3F4,0.0
mp-699352,LiFe2(PO4)3,0.0
mp-699375,Co8As3O16,0.0
mp-705031,Li2Ni(PO4)2,0.0
mp-705271,Eu(Ni5P3)2,0.0
mp-705300,Cr(PO3)5,0.21760000000000002
mp-705404,Li4Fe3P4O15,3.9399999999999995
mp-707992,DyP2H9O10,2.2485999999999997
mp-708965,H8C3(NO)4,3.3613999999999997
mp-761933,Co3Cu3(TeO8)2,0.0
mp-761947,Na5(WO3)14,0.0
mp-762014,LiCoPO4,1.8231999999999997
mp-762079,LiNiPO4,0.0
mp-762184,LiMn2(CO4)2,0.42290000000000005
mp-768813,Rb4SiO4,0.0
mp-768921,Li8B2O7,5.509600000000001
mp-768931,Ga10Si2O19,2.0816999999999997
mp-768943,Sn2(SO4)3,0.0
mp-768949,KEuO2,0.0
mp-769167,EuYO2,0.0
mp-769419,BaV10O17,1.0171000000000001
mp-769429,Li4TiMn4(Fe2O9)2,0.43290000000000006
mp-769440,Li7Mn8O20,0.0
mp-778702,Mn6O7F5,0.0
mp-778760,Ni4(PO4)3,0.0
mp-778771,Li10Cr3Co2Ni3O16,0.0
mp-778817,Li4Mn3Nb3(TeO8)2,0.47889999999999944
mp-778893,Li32Mn3Cr13O48,0.9811000000000001
mp-778973,Zn(NO3)2,3.3381999999999996
mp-853225,Li2Cr(SO4)2,2.2485999999999997
mp-8540,NdRhC2,0.0
mp-8580,Ca(PRh)2,0.0
mp-8583,Ba(PRh)2,0.0
mp-8591,USe2,0.0
mp-8607,Na(Cu2Sb)2,0.0
mp-8608,K(Cu2As)2,0.0
mp-861606,KLaSiSe4,2.3528000000000002
mp-862678,Sb2H8Pt(OF3)4,1.9862000000000002
mp-862682,Ba2Ga2O5,0.0
mp-9743,SrAsPd,0.0
mp-974790,Rb5Tl11Cd2,0.0
mp-974846,Rb3Os,0.0
mp-974856,Rb3Re,0.0
mp-974861,Mn2Co2O5,0.0
mp-974869,Rb3Nb,0.0
mp-974883,Rb3Na,0.0
mp-974906,MnSn3,0.0
mp-974925,NdY3,0.0
mp-974997,Rb3Ge,0.0
mp-975037,Rb3Ba,0.0
mp-975044,Li(SiRh)2,0.0
mp-975056,Rb3Al,0.0
mp-975059,MnTl3,0.0
mp-975079,MnZn3,0.0
mp-975106,Rb2Bi2O5,0.0
mp-975129,Rb,0.0
mp-985284,Ce3Pa,0.0
mp-985286,Ac2Mg,0.0
mp-985287,AgAu3,0.0
mp-985288,As3W,0.0
mp-985291,Ac3Hg,0.0
mp-985301,AcDy3,0.0
mp-985304,Cr(GaS2)2,0.0
mp-985305,Ac3In,0.0
mp-985551,CeY3,0.0
mp-985557,Ce3Dy,0.0
mp-985702,AgPb3,0.0
mp-9858,Ba3Ge4,0.0
mvc-13532,AlCoO3,0.0
mvc-13571,La2ZnSbO6,0.0
mvc-13582,La2MgSnO6,4.092899999999999
mvc-13620,La2ZnBiO6,0.0
mvc-13672,La2VZnO6,1.6867999999999999
mvc-13687,La2ZnCrO6,0.0
mvc-13691,YVO3,0.0
mvc-13694,La2MoO6,2.7963999999999993
mvc-13696,NiO2,0.0
mvc-13757,Mg(SnN)2,0.0
mvc-13808,MnN,0.0
mvc-13841,CuN,0.0
mvc-13850,Ca(WN)2,0.0
mvc-13902,AlSnF5,3.8613999999999997
mvc-13927,SnN,0.0
mvc-13964,TiAlO3,0.0
mvc-13971,YSnO3,0.0
mvc-13995,YTiO3,0.0
mvc-13996,AlCrO3,0.0
mvc-13997,AlVO3,0.0
mvc-14006,AlMoO3,0.0
mvc-14043,AlNiO3,0.0
mvc-14047,MnS2,0.0
mvc-14056,Ca(FeS2)2,0.0
mvc-14071,Al5(CuO4)3,0.0
mvc-14096,Cu3(GeO3)4,0.0
mvc-14111,Al5(FeO4)3,2.0271999999999997
mvc-14116,Al4(CoO4)3,0.0
mvc-14138,Al2(FeO3)3,0.0
mvc-14231,CaFeF4,3.6648000000000005
mvc-14286,CaTiF4,0.38949999999999996
mvc-14342,YNiO3,0.0
mvc-14359,CaAgF5,0.0
mvc-14376,Y2V3O9,0.9430000000000001
mvc-14411,AlSbO3,0.10069999999999979
mvc-14421,BaCa(CoN2)2,0.29309999999999997
mvc-14446,V2ZnS4,0.0
mvc-14450,Mg(VS2)2,0.0
mvc-14464,SnF3,1.9533999999999998
mvc-14516,Y(CuS2)3,0.05750000000000011
mvc-14527,Pr(NiO3)2,0.08619999999999983
mvc-14551,La2MgBiO6,0.0
mvc-14574,Mg(TiN)2,0.0
mvc-14594,La2ZnCoO6,1.1209000000000007
mvc-14624,MoN,0.0
mvc-14665,ZnSbF6,0.0
mvc-14713,VZnF6,0.0
mvc-14721,MgVF6,0.0
mvc-14725,MnAlF5,4.6339999999999995
mvc-14726,AlNiF5,4.778700000000001
mvc-14769,CrS2,0.0
mvc-14772,V2ZnS4,0.0
mvc-14834,CaTiF6,4.675599999999999
mvc-14837,Ca5Cu2(IrO6)2,0.0
mvc-14911,SbO2,1.8453999999999997
mvc-14924,Al4(FeO4)3,0.0
mvc-14927,Ca(NiO2)2,0.0
mp-6114,La3Ni2B2N3,0.0
mp-6123,Ba2Pd(OF)2,0.0
mp-6140,PrNi2B2C,0.0
mp-6175,BaLi2P2O7,5.361800000000001
mp-6178,Cs2KTiF6,0.0
mp-6188,LuNiBC,0.0
mp-6191,CeB2Rh2C,0.0
mp-622101,Mo4O11,0.0
mp-6272,NaEuP2O7,0.0
mp-633668,K23Na8(CdIn4)12,0.0
mp-634591,Nd2Tl(MoO4)4,0.0
mp-636773,Ce3(AlI)2,0.0
mp-637251,Cs2SiSe4,1.9253999999999998
mp-647035,La4C5Cl2,0.0
mp-647220,Cd85Pd27,0.0
mp-647275,Ba39Li80N9,0.0
mp-647281,Sm2B4O9,5.3793999999999995
mp-647385,V2Pb4O9,2.8596999999999997
mp-647450,NaCa2TiSi2O8F,3.4362999999999997
mp-647589,La6Ge11,0.0
mp-647729,Zr14P9,0.0
mp-647878,SbS5N5Cl6,1.8725999999999998
mp-648007,Tl2Mo4O13,0.0
mp-648256,Pr14Si11Ni6,0.0
mp-650055,Fe15(Ge2O9)4,0.006999999999999673
mp-675920,Ti6AgS12,0.0
mp-675987,Ag7(SI)2,0.0
mp-675991,Cd3(BiO2)10,0.0
mp-676024,Li27Sb10,0.0
mp-676036,Ba(FeS2)2,0.0
mp-676106,NdZr9O20,0.0
mp-676229,Rb5NO5,0.0
mp-676286,Zr4CdO9,2.5416999999999996
mp-676287,Ce6Th4O19,0.0
mp-676349,Ga7(CuSe4)3,0.0
mp-676402,Ti8Cu3S16,0.0
mp-676534,Rb8C4O7,0.03869999999999996
mp-676553,RbCrI3,0.0
mp-676566,LiNbAs2,0.0
mp-676601,K9(Mo6S7)8,0.0
mp-676663,ZnSnSb2,0.0
mp-682554,FeCu4Re14(Mo3S20)2,0.0
mp-683793,Fe4Te2MoC14(SO7)2,1.7006000000000001
mp-683867,Tb(BO2)3,5.508900000000001
mp-683890,CsRe3(S2Br)2,1.8861999999999999
mp-683922,Ce6Ge9(BO15)2,0.0
mp-683946,MgIr,0.0
mp-683950,Ca10Pr4Cu24O41,0.0
mp-683986,Yb11(U2S11)2,0.0
mp-683992,Ce7(GePd2)2,0.0
mp-684014,Sn14Sb11Pt8,0.0
mp-684053,Sn6P7O24,0.0
mp-684056,Ti4(PO5)3,0.04589999999999961
mp-684426,Sb(PO3)4,0.0
mp-684537,Sb(PO3)5,0.0
mp-705574,LiMn16O32,0.0
mp-705593,Al2NiO4,2.923400000000001
mp-705659,Fe2CuO4,0.0
mp-705664,K(WO3)9,0.0
mp-705744,Fe5SiO8,1.2772000000000001
mp-705752,Fe2NiO4,1.2774999999999999
mp-705830,Rb5(WO3)18,0.0
mp-705834,BaFe15O23,0.0
mp-705842,Fe9Cu3O16,0.0
mp-705844,Mo5(O4F)3,0.0
mp-705846,CuH16(ClO8)2,0.0
mp-705910,Li15(NiO2)14,0.0
mp-706223,La4TiMn5(PbO9)2,0.0
mp-706248,Ca6Pr6Mn11CrO36,0.0
mp-706249,Rb(WO3)4,0.0
mp-707942,B5H2Pb2O11,0.19349999999999978
mp-709143,ZrH11C4NOF5,0.17710000000000004
mp-709400,HgH4C4(Br2N)2,2.4168999999999996
mp-709428,YH8C2S2NO9,1.4786000000000001
mp-762200,LiP2WO7,3.9162000000000003
mp-762204,Co25Cu11O48,0.0
mp-762227,V(CO3)2,1.2893000000000001
mp-762231,Fe41O56,0.0
mp-762256,Li3Ni2P2(O4F)2,0.0
mp-762259,Li2Cu2F5,0.0
mp-762274,LiCu4(PO4)3,0.0
mp-762279,K2Ti8O17,2.7786999999999997
mp-762291,LiCo2C2O7,0.0
mp-762352,P(H3C)3,4.1735999999999995
mp-762374,Li4La3Nb12O36,0.0
mp-762748,Li6VNi3(PO4)6,0.0
mp-762755,Li2Fe(PO4)2,0.0
mp-762762,LiFe2(SiO4)2,0.0
mp-762768,Li9Fe4(SiO5)4,0.0
mp-762823,LiMn(PO3)4,1.3659999999999999
mp-762957,Li5V3P8O29,1.1440000000000001
mp-762974,LiCoSiO4,1.4868000000000001
mp-762976,LiCoSiO4,1.4128000000000003
mp-763024,Mn6O5F7,0.02499999999999991
mp-763142,Mn12O5F19,0.0
mp-763210,Li9Mn4(BO3)8,0.0
mp-763233,Mn12O5F19,0.0
mp-769444,Li4Ti2Mn3(Fe2O9)2,0.9875000000000003
mp-769448,Li4Ti4Mn4NiO18,0.9712000000000001
mp-769449,Li4Mn5(Fe2O9)2,0.0
mp-769455,Li4Ti4Mn4CrO18,0.0
mp-769473,Li13Ni9O22,0.0
mp-769487,Li4Ti4V5O18,0.9893000000000001
mp-769491,Li4Ti2V7O18,0.009399999999999853
mp-769508,Li4Ti2Mn7O18,0.0
mp-769509,Li4TiMn8O18,0.0
mp-769530,Li3Mn4(FeO6)2,0.39880000000000004
mp-769534,Na3Mn2P2(CO7)2,0.0
mp-769540,Na3Mn2P2(CO7)2,0.0
mp-769541,Li4Ti3(CoO3)6,0.0
mp-769545,Li10FeNi9O20,0.0
mp-769574,Li7V6Ni5O24,0.0
mp-769710,Li3Fe2P2(CO7)2,0.0
mp-769713,Na4B4Sb2SO16,1.8820000000000001
mp-769719,Li4Cr3NiO8,0.0
mp-769793,Rb4FeO4,0.46819999999999995
mp-769925,TiCrO3,0.0
mp-769975,Li2Cr3FeO8,0.0
mp-769999,Li4Cr3NiO8,0.0
mp-77,S,2.7104
mp-770045,Na5Mn2P2(CO7)2,0.0
mp-770170,Li3V3(BO5)2,0.0
mp-779144,Rb3HoO3,2.1338999999999997
mp-779260,Gd3SbO7,2.5326999999999997
mp-779298,Mn8O13F3,0.0
mp-779359,Fe10O19F,0.0
mp-779383,Mn12O17F7,0.0
mp-779390,Li2Mn3(BO3)3,0.0
mp-779406,Mn7(P2O7)4,0.0
mp-779465,Ti17(NO4)6,0.0
mp-779477,Na2Ti2O5,3.8185000000000002
mp-779712,Ti17(NO4)6,0.0
mp-779746,Li4V3Fe2Sn3O16,1.4287000000000005
mp-779753,LiV4OF11,1.3014999999999999
mp-779764,Li10Ti2Mn3Co3O16,0.0
mp-779774,Fe10O11F9,0.0
mp-780676,Na2Cr4O13,1.8189000000000002
mp-863066,Ta6Pb4O19,1.7422999999999997
mp-863298,Ba2VP2O11,0.13589999999999997
mp-863362,LiTa3O8,2.4137999999999997
mp-863389,Nb16Tl16O53,0.0
mp-863888,Li2Fe(SiO3)2,2.6240000000000006
mp-865980,CsAgPSe3,1.4265999999999999
mp-866520,Ca2SnS4,2.0269999999999997
mp-866941,CaSnS3,1.366
mp-868377,LiNi(PO3)4,0.0
mp-9752,Li2NbF6,0.0
mp-975222,RbSr3,0.0
mp-975253,RbPr3,0.0
mp-975272,Hg,0.040700000000000014
mp-975298,RbNa3,0.0
mp-975531,RbCr5Te8,0.0
mp-975577,K3La(AsO4)2,3.857
mp-976925,Na(Mg4Al3)4,0.0
mp-978595,Si(H3C)2,3.5705999999999998
mp-978990,Tl2(IO3)3,1.9006999999999996
mp-985828,AgBiS2,0.0
mp-9873,EuZnGe,0.0
mp-9886,La(PRu)2,0.0
mp-989179,Mo4HS8,0.0
mp-989195,ScClO,3.9227999999999996
mp-989468,B2(CN2)3,2.6694999999999993
mp-9895,Tc2P3,0.0
mvc-11885,Ba4CaTl4(Cu3O10)2,0.0
mvc-11916,Ca2La5Mn7NiO24,0.0
mvc-12038,Mn4(SiO3)5,0.38829999999999965
mvc-12056,Sr9Zn3(CuO7)2,0.0
mvc-12191,Y4(Cu2O5)3,0.0
mvc-12253,Y8Cu3(GeS7)3,0.0
mvc-14930,Ca3Mn2(IrO6)2,0.0
mvc-14936,Ca3Ni2(WO6)2,0.0
mvc-14940,Ti(BiO3)2,0.0
mvc-14949,Ti(BiO3)2,0.0
mvc-14981,Ca3Fe2(SbO6)2,0.0
mvc-14991,SrCuSO,0.0
mvc-14999,Al4(FeO4)3,0.0
mvc-15009,MgMn2O4,0.0
mvc-15040,Mn13Si2(SbO14)2,0.0
mvc-15106,Sr2ZnNi2(PO4)4,0.0
mvc-15137,Ba2ZnFe2F14,0.16759999999999997
mvc-15141,Co(BiO3)2,0.0008999999999996788
mvc-15177,La2ZnSnO6,3.0843999999999996
mvc-15365,Zn(WN)2,0.0
mvc-15420,La2ZnWO6,0.0
mvc-15458,ZnNiF6,1.5876000000000001
mvc-3413,ZnSnF5,0.0
mvc-3429,MgSnF5,0.0
mvc-3518,BiF5,1.9047999999999998
mvc-3733,CaMnF5,1.5375999999999999
mvc-4083,Ca3Cu2(Si2O7)2,0.20460000000000012
mvc-4336,Ca3Si4(BiO7)2,2.8762999999999996
mvc-4389,Mg3Si4(SbO7)2,1.9946000000000002
mvc-4404,Zn3Si4(BiO7)2,2.4360999999999997
mvc-4472,Zn3Si4(SbO7)2,1.7652999999999999
mvc-4527,Zn3Si4(SnO7)2,1.3719000000000001
mvc-4535,Mg3Si4(SnO7)2,1.5667999999999997
mvc-4592,Mg3Cr2(Si2O7)2,2.2870999999999997
mvc-4594,ZnSb2O5,0.0
mvc-4620,Mg3V2(Si2O7)2,1.9870999999999999
mvc-4623,MgSb2O5,0.0
mvc-4629,V2Zn3(Si2O7)2,1.8698000000000001
mvc-4650,MgTi2O4,0.0
mvc-4746,Ti2ZnO4,0.0
mvc-4767,MgSnO2,0.944
mvc-4850,Zn(AgO2)2,0.0
mvc-4855,Zn(CuO2)2,0.0
mvc-4858,Mg(CuO2)2,0.0
mvc-4868,CaSnO2,0.0
mvc-4870,Mg3Co2(Si2O7)2,1.3757000000000001
mvc-4877,Zn3Fe2(Si2O7)2,2.0643000000000002
mp-1013796,Li3Ni2(GeO4)3,0.0
mp-1013864,Na3Fe2(GeO4)3,0.0
mp-1015026,CrN2,0.21100000000000002
mp-1025415,CePd7,0.0
mp-1030015,Mg3WN4,1.9534000000000002
mp-1039167,CaMg,0.0
mp-1039188,MgBi,0.0
mp-1039270,CeMg,0.0
mp-1068941,K2PdS2,1.2448000000000001
mp-1073256,Mg2Si3,0.0
mp-1078223,Eu(Ag2Sb)2,0.0
mp-1078899,LuNi,0.0
mp-1080726,Zn3CrS4,0.0
mp-1094530,Sr5Mg,0.0
mp-1094636,MgGa,0.0
mp-1099089,Mg14CoNi,0.0
mp-1099092,SrMg14Fe,0.0
mp-1099323,CeMg6Cu,0.0
mp-1099683,Na2Cr2O5,0.0
mp-1100160,Mg6CdB,0.0
mp-1103891,Mg3Si2O9,0.0
mp-1111074,Li3AsF6,4.113700000000001
mp-1120825,Li5CoNi9O20,0.0
mp-1175770,Li9Mn2Co5O16,0.05320000000000036
mp-1187223,Ta3Pd,0.0
mp-12613,LaNiSn,0.0
mp-13024,AlPO4,4.9643999999999995
mp-13929,Ba2SmReO6,0.0
mp-15277,La5Cu19P12,0.0
mp-17013,Ta5Ge3,0.0
mp-18968,Li2FeSiO4,3.1235999999999997
mp-19376,TiMnO3,1.8848000000000003
mp-19895,NiSb2,0.0
mp-20551,GaCo2Ni,0.0
mp-2085,PrCo2,0.0
mp-21330,EuAgAs,0.0
mp-21344,CuGeO3,0.0
mp-23194,LaI2,0.0
mp-2450,CaSn,0.0
mp-25595,NiO2,1.4989000000000001
mp-26150,Sb(PO3)4,0.0
mp-26390,Nb2(PO4)3,0.0
mp-2670,Nb3Ga,0.0
mp-26952,Sb(PO3)4,0.0
mp-28500,UTe5,0.0
mp-30667,Sr8Ga7,0.019299999999999873
mp-32329,Ni5(PO4)4,0.044199999999999795
mp-32381,NiP2O7,0.0
mp-34412,Sr(La2Se3)4,0.0
mp-37297,U2PS,0.0
mp-39387,SrLiTa2O6F,3.6165000000000003
mp-504482,AlInS3,2.3613999999999997
mp-505686,GdH3,0.0
mp-510765,Li3Cu2(WO4)4,0.0
mp-531197,Sr(ReO3)3,0.0
mp-540267,CrP2O7,0.0
mp-540345,Cr2(PO4)3,0.0
mp-541277,CaYbInS4,0.0
mp-542484,Sr5Cd3,0.0
mp-555769,ScBiO3,2.6630999999999996
mp-558110,TiS2,0.013400000000000079
mp-558621,Ce(BO2)3,0.0
mp-562499,Yb3Ga5O12,0.0
mp-565395,Na4MoS3O14,2.7771999999999997
mp-567061,KBa3Ca4V7Cu3O28,0.0
mp-567370,Ce3Se4,0.0
mp-568551,Yb(CrSi)2,0.0
mp-569831,Zr3(Al2C3)2,0.0
mp-570436,CaIr2,0.0
mp-572986,Cs2Np2PO4F7,0.0
mp-582572,ErNiGe2,0.0
mp-610,MnAs,0.0
mp-614489,GdInCu2,0.0
mp-623836,ThNi,0.0
mp-631312,InP2Pb,0.0
mp-631338,LiZrSc,0.0
mp-631390,SrZrZn,0.0
mp-631399,OsPtCl2,0.0
mp-631423,TaPbBr,0.0
mp-631424,ReW2Br,0.0
mp-631466,KSc2Co,0.0
mp-631487,LaBeOs2,0.0
mp-631497,BeInBi,0.0
mp-631535,BeW2Cl,0.0
mp-643614,Nd(MnSn)6,0.0
mp-644389,Li2H2Pd,0.0
mp-647164,Cu12Sb4S13,0.0
mp-648774,Zr2Cl5,0.0
mp-651160,Gd3NCl6,1.968
mp-651688,Si4Ag10O13,0.49729999999999963
mp-652025,Na8Si7O18,0.0
mp-652282,P(W3O10)2,0.0
mp-652550,Er5Si3C,0.0
mp-654359,BaCu2(PO4)2,0.34909999999999974
mp-655377,CuH10SO9,0.0
mp-656615,Rb,0.0
mp-656859,FePH5CO8,1.1987999999999999
mp-6592,K2Pt(NO2)4,2.1193999999999997
mp-673637,Ti9S10,0.0
mp-673649,Zr23S32,0.0
mp-674326,K2NbCl3,0.0
mp-684585,Gd2O3,0.0
mp-684620,Nb25S48,0.0
mp-684627,Ce13O24,0.0
mp-684657,Pd7O8,0.0
mp-684674,Cr5S8,0.0
mp-684709,K3B17,0.0
mp-684802,Sr8La3(RuO7)3,0.0
mp-684805,Mn14Sb13,0.0
mp-684822,Co19Te34,0.0
mp-684829,Co27Se32,0.0
mp-684869,Te16Rh11,0.0
mp-684943,Ta22O21,0.0
mp-684959,Sm5Se9,0.0
mp-684965,ZrSe,0.0
mp-684966,Tb8O13,0.0
mp-684970,Cu19Se11,0.0
mp-684978,Sc29S42,0.0
mp-685008,Ba20As13,0.0
mp-685047,V23Se40,0.0
mp-685048,Ag2Te,0.0
mp-685050,Nb16N9,0.0
mp-685069,Sc2Te3,0.0033000000000003027
mp-685078,K11B62,0.0
mp-694894,LiMn12O24,0.0
mp-6952,RbYbF3,6.5181000000000004
mp-720402,B10H13CSN,2.5385999999999997
mp-720406,Na2B5H5O12,0.06840000000000002
mp-720505,SrLa7TiGa7O24,2.5230000000000006
mp-720657,Na7Li4Yb5C12O37,0.0
mp-720895,ReH22C4S4N8Cl8O3,1.3417000000000001
mp-721035,CuH12(NO)6,0.0
mp-721905,B5H4NO10,0.0
mp-752678,AgAuO3,0.0
mp-753211,FeCuS2,0.0
mp-753519,CuPO4,0.0
mp-758934,Dy3Co29(Si2B5)2,0.0
mp-761336,Li3V2(PO4)3,0.0
mp-761779,K9(WO3)20,0.0
mp-761912,Li7V3P8O29,0.0
mp-763239,Li4CrP2(O4F)2,0.42500000000000004
mp-763263,FeP4O11,3.5753999999999997
mp-763273,LiMn2P2(O4F)2,0.0
mp-763399,Li2Co2(SiO3)3,2.652
mp-763402,LiP4WO12,3.8888000000000003
mp-763412,Li4Co13O28,0.46140000000000003
mp-763461,LiP3(WO6)2,2.6344999999999996
mp-763496,MnFeCo(PO4)3,0.22189999999999976
mp-763606,Li3P3(WO6)2,3.9071000000000002
mp-763653,Rb3Mn16O32,0.0
mp-763666,Li6Ti3V(PO4)6,0.009400000000000297
mp-763736,LiMn4(PO4)3,2.8674999999999997
mp-763743,Li19Cr4P8O35F,1.7946999999999997