task_id,composition,band_gap
mp-865038,HfTaTc2,0.0
mp-1232383,HfTaTiB4MoC4,0.0
mp-1224275,HfTaV4,0.0
mp-1095669,HfTc2,0.0
mp-1095996,HfTc2Ge,0.0
mp-1184589,HfTc2Mo,0.0
mp-865023,HfTc2Sb,0.0
mp-865039,HfTc2Sn,0.0
mp-866114,HfTc2W,0.0
mp-32887,HfTe2,0.0
mp-1025459,HfTe3,0.0
mp-1224271,HfTeSe,0.0
mp-1184597,HfThO3,0.0
mp-1184636,HfThTc2,0.0
mp-1224258,HfTi,0.0
mp-1184672,HfTi3,0.0
mp-1097190,HfTiAu2,0.0
mp-1224263,HfTiB4,0.0
mp-1097550,HfTiBe2,0.0
mp-1224274,HfTiC2,0.0
mp-1224279,HfTiCN,0.0
mp-1097648,HfTiCo2,0.0
mp-1224401,HfTiFe4,0.0
mp-1224259,HfTiMo4,0.0
mp-1224286,HfTiN2,0.0
mp-1097535,HfTiNi2,0.0
mp-1097439,HfTiRe2,0.0
mp-1093653,HfTiRh2,0.0
mp-1224169,HfTiRu2,0.0
mp-1224218,HfTiSe4,0.0
mp-1097517,HfTiTc2,0.0
mp-1224182,HfTiW4,0.0
mp-1184579,HfTiZn2,0.0
mp-1184549,HfTl,0.0
mp-1093693,HfTlAu2,0.0
mp-1224243,HfU(NbC2)2,0.0
mp-1224267,HfU(TaC2)2,0.0
mp-12890,HfU3Sb5,0.0
mp-1224240,HfUC2,0.0
mp-1224394,HfUN2,0.0
mp-1077017,HfV2,0.0
mp-1224241,HfV2N3,0.0
mp-1096392,HfVAu2,0.0
mp-1018726,HfVGe,0.0
mp-1095442,HfVP,0.0
mp-1400,HfW2,0.0
mp-1224191,HfWC2,0.0
mp-1014219,HfZn,0.0
mp-1016106,HfZn16,0.0
mp-514,HfZn2,0.0
mp-1201271,HfZn22,0.0
mp-1224173,HfZn2Ga,0.0
mp-866108,HfZn3,0.0
mp-866117,HfZnAu2,0.0
mp-866096,HfZnCo2,0.0
mp-866094,HfZnCu2,0.0
mp-864798,HfZnIr2,0.0
mp-1016819,HfZnO3,0.0
mp-1184560,HfZnPd2,0.0
mp-983430,HfZnPt2,0.0
mp-1184580,HfZnRh2,0.0
mp-983459,HfZr,0.0
mp-1224254,HfZr(CoSb)2,0.0
mp-1224215,HfZr(SbRh)2,0.0
mp-1224284,HfZr2UC4,0.0
mp-1184723,HfZr3,0.0
mp-1096305,HfZrAu2,0.0
mp-1224184,HfZrB4,0.0
mp-1224170,HfZrC2,0.0
mp-1224228,HfZrCN,0.0
mp-1184647,HfZrCo2,0.0
mp-1224248,HfZrCoSb2Rh,0.0
mp-1184648,HfZrFe2,0.0
mp-1224188,HfZrFe4,0.0
mp-1097107,HfZrHg2,0.0
mp-1224193,HfZrMo4,0.0
mp-1224247,HfZrN2,0.0
mp-1224216,HfZrNb2,0.0
mp-1184607,HfZrOs2,0.0
mp-1097082,HfZrRh2,0.0
mp-1184601,HfZrRu2,0.0
mp-974943,HfZrTc2,0.0
mp-1224085,HfZrV4,0.0
mp-1224067,HfZrW4,0.0
mp-974973,HfZrZn2,0.0
mp-755853,Hg(BiO3)2,0.0
mp-1192675,Hg(Br3N2)2,0.0
mp-675647,Hg(Mo3S4)2,0.0
mp-642625,Hg12SbBr(ClO3)2,0.0
mp-631530,Hg2BCl,0.0
mp-1078929,Hg2Br2N,0.0
mp-1212240,Hg2CN3Cl5,0.0
mp-1224287,Hg2CNCl5,0.0
mp-973335,Hg2H6CN3Cl5,2.442
mp-1224033,Hg2IN,0.0
mp-1077346,Hg2N,0.0
mp-22089,Hg2Os2O7,0.0
mp-1192966,Hg2PO4,0.0
mp-11470,Hg2Pt,0.0
mp-755465,Hg2Pt2O7,0.0
mp-674503,Hg2SbF6,0.0
mp-1204483,Hg2Se2O7,0.0
mp-1223907,Hg2SeS,0.0
mp-1223932,Hg2TeSe,0.0
mp-1193816,Hg3(ClO5)2,0.0
mp-1191688,Hg3(NCl3)2,0.0
mp-29096,Hg3(SBr)2,1.487
mp-973626,Hg3Au,0.0
mp-981387,Hg3Bi,0.0
mp-1184605,Hg3Cl,0.0
mp-982008,Hg3F,0.0
mp-1184688,Hg3Ge,0.0
mp-1199625,Hg3HN2O7,2.3209999999999997
mp-981391,Hg3Ir,0.0
mp-1184685,Hg3P,0.0
mp-1184700,Hg3Pb,0.0
mp-1184702,Hg3Pd,0.0
mp-1184608,Hg3Pt,0.0
mp-975452,Hg3Rh,0.0
mp-1197253,Hg3S2O11,0.0
mp-568838,Hg4I7,0.0
mp-1181617,Hg4N3O10,0.0
mp-936,Hg4Pt,0.0
mp-1095460,Hg4SbHO6,0.0
mp-1181099,Hg4SbO6,0.0
mp-23543,Hg5(BrO2)2,0.0
mp-1104591,Hg5(ClO)4,0.0
mp-1812,Hg5Au6,0.0
mp-30721,Hg5Pd2,0.0
mp-558260,Hg6Cl3O2,0.0
mp-1224301,Hg6S4IBr3,0.0
mp-532156,Hg7(Sb2Br3)2,0.0
mp-1226380,HgAs3H12C4S6N,2.172
mp-1238093,HgAsO4,0.0
mp-1077915,HgAsPd5,0.0
mp-1184705,HgAu3,0.0
mp-1223945,HgAu4,0.0
mp-1096797,HgB6,0.0
mp-1184679,HgBi3,0.0
mp-778408,HgBiO3,0.0
mp-1095797,HgBiPb2,0.0
mp-1184720,HgBr3,0.0
mp-1102279,HgBr3NO,0.0
mp-1063495,HgBrN,0.0
mp-1191395,HgBrO4,0.0
mp-1184566,HgC,0.0
mp-1199879,HgC6(N4Cl)3,0.0
mp-1102100,HgCBr3N,0.0
mp-1188705,HgCNCl3,0.0
mp-1201879,HgCSN3Cl2,0.0
mp-1238611,HgClO6,0.0
mp-1184655,HgF3,0.0
mp-1184571,HgGe3,0.0
mp-1017447,HgGeO3,0.0
mp-736545,HgH2C6(NCl2)2,0.0
mp-973601,HgI3,0.0
mp-1224141,HgMo6(SeS)4,0.0
mp-973674,HgN,0.0
mp-1207010,HgN2,0.952
mp-1202185,HgN2O3,0.0
mp-1202660,HgN4(ClO3)2,0.0
mp-1103009,HgNCl,0.0
mp-1069250,HgNCl3,0.0
mp-1192100,HgNO4,0.0
mp-1203186,HgNO5,0.0
mp-978009,HgOs,0.0
mp-1016840,HgOsO3,0.0
mp-631293,HgP2Se,0.0
mp-1025302,HgPPd5,0.0
mp-1025386,HgPPt5,0.0
mp-631301,HgPRh,0.0
mp-1223969,HgPb2,0.0
mp-1223984,HgPb3,0.0
mp-1224108,HgPb4,0.0
mp-2685,HgPd,0.0
mp-977454,HgPd2Au,0.0
mp-1184658,HgPd3,0.0
mp-1077944,HgPd5Se,0.0
mp-1102023,HgPt2Se3,0.0
mp-754538,HgPtO2,0.0
mp-15639,HgRhF6,0.0
mp-1016851,HgRuO3,0.0
mp-1072320,HgSBr,0.0
mp-1192535,HgSNClO3,0.0
mp-1192632,HgSO5,0.0
mp-1104954,Ho(Al2Cu)4,0.0
mp-31179,Ho(Al2Fe)4,0.0
mp-1212162,Ho(Al5Fe)2,0.0
mp-1212490,Ho(Al5Re)2,0.0
mp-1212388,Ho(Al5Ru)2,0.0
mp-973634,Ho(AlC)3,0.0
mp-1224088,Ho(AlFe)6,0.0
mp-20410,Ho(BC)2,0.0
mp-1189784,Ho(BRh)4,0.0
mp-1204787,Ho(BRu)4,0.0
mp-769405,Ho(Bi3O5)4,0.0
mp-1040838,Ho(BiO3)2,0.0
mp-1105128,Ho(Co2B)6,0.0
mp-573995,Ho(CoB)2,0.0
mp-4415,Ho(CoGe)2,0.0
mp-5835,Ho(CoSi)2,0.0
mp-9441,Ho(CrGe)6,0.0
mp-5561,Ho(CrSi)2,0.0
mp-4539,Ho(CuGe)2,0.0
mp-9421,Ho(CuO2)2,0.0
mp-1018632,Ho(CuS)2,0.0
mp-4105,Ho(CuSi)2,0.0
mp-1212389,Ho(Fe2Ge)2,0.0
mp-1224130,Ho(Fe5Si)2,0.0
mp-571500,Ho(FeB)2,0.0
mp-3065,Ho(FeGe)2,0.0
mp-3191,Ho(FeSi)2,0.0
mp-683940,Ho(FeSn)6,0.0
mp-1104739,Ho(GaFe)6,0.0
mp-1095528,Ho(Ge2Rh3)2,0.0
mp-4742,Ho(GePd)2,0.0
mp-569650,Ho(GeRh)2,0.0
mp-5260,Ho(GeRu)2,0.0
mp-1224066,Ho(MnAl)6,0.0
mp-1224143,Ho(MnGa)6,0.0
mp-5666,Ho(MnGe)2,0.0
mp-5796,Ho(MnSi)2,0.0
mp-20630,Ho(MnSn)6,0.0
mp-554457,Ho(Mo3S4)2,0.0
mp-1104260,Ho(Mo3Se4)2,0.0
mp-1103507,Ho(Ni2As)2,0.0
mp-1212548,Ho(Ni2B)6,0.0
mp-1104221,Ho(Ni2P)2,0.0
mp-31009,Ho(NiB)2,0.0
mp-4291,Ho(NiGe)2,0.0
mp-2906,Ho(NiP)2,0.0
mp-1079761,Ho(NiSb)2,0.0
mp-1213093,Ho(PO)2,0.0
mp-1207099,Ho(PPd)2,0.0
mp-567458,Ho(PRu)2,0.0
mp-1040783,Ho(SbO3)2,0.0
mp-569013,Ho(SiAu)2,0.0
mp-567513,Ho(SiIr)2,0.0
mp-2924,Ho(SiNi)2,0.0
mp-542390,Ho(SiNi5)2,0.0
mp-5219,Ho(SiOs)2,0.0
mp-4148,Ho(SiPd)2,0.0
mp-16377,Ho(SiPt)2,0.0
mp-3895,Ho(SiRh)2,0.0
mp-5720,Ho(SiRu)2,0.0
mp-1025172,Ho(TiGa2)2,0.0
mp-1213656,Ho(TlTe2)3,0.0
mp-30729,Ho10In20Ni9,0.0
mp-1199972,Ho10Mn13C18,0.0
mp-1201298,Ho11(In3Ge2)2,0.0
mp-1199978,Ho11(In3Si2)2,0.0
mp-1204867,Ho11(Ni10C)6,0.0
mp-9994,Ho11Ge10,0.0
mp-1203269,Ho11Sn10,0.0
mp-1212467,Ho12Al7Si,0.0
mp-1212429,Ho12Co5Bi,0.0
mp-30969,Ho12Co7,0.0
mp-1212423,Ho12In3Fe2,0.0
mp-31109,Ho12InPt7,0.0
mp-1212509,Ho12Ni6Pb,0.0
mp-1224563,Ho14Ag51,0.0
mp-1198229,Ho15C19,0.0
mp-1224472,Ho15Si9C,0.0
mp-1212357,Ho2(Al3Ir)3,0.0
mp-1212359,Ho2(Al3Pd)3,0.0
mp-1224217,Ho2(B2Rh3)3,0.0
mp-1224084,Ho2(CoNi)5,0.0
mp-1224041,Ho2(Fe3Si)3,0.0
mp-14125,Ho2(Ga3Co)3,0.0
mp-1212420,Ho2(Ga3Ir)3,0.0
mp-1212406,Ho2(Ga3Rh)3,0.0
mp-1212385,Ho2(Ga3Ru)3,0.0
mp-570397,Ho2(GePt3)3,0.0
mp-567285,Ho2(Ni5B2)3,0.0
mp-5571,Ho2(Ni5B3)3,0.0
mp-1095435,Ho2(NiB2)3,0.0
mp-1225241,Ho20In40Rh19,0.0
mp-1184622,Ho2AgAu,0.0
mp-1184691,Ho2AgHg,0.0
mp-977358,Ho2AgIr,0.0
mp-1184621,Ho2AgOs,0.0
mp-1184631,Ho2AgRu,0.0
mp-16502,Ho2Al,0.0
mp-1224034,Ho2Al3Fe,0.0
mp-1188696,Ho2Al3Ge4,0.0
mp-3328,Ho2Al3Si2,0.0
mp-1184596,Ho2AlCd,0.0
mp-1223966,Ho2AlFe3,0.0
mp-1212392,Ho2AlGe3,0.0
mp-1069801,Ho2AlNi2,0.0
mp-977406,Ho2AlOs,0.0
mp-1184583,Ho2AlRu,0.0
mp-10528,Ho2AlSi2,0.0
mp-864674,Ho2AlZn,0.0
mp-1224190,Ho2As7Rh12,0.0
mp-1200778,Ho2B6Os,0.0
mp-1212391,Ho2B6Rh,0.0
mp-1198017,Ho2B6Ru,0.0
mp-769229,Ho2Bi2O7,0.0
mp-1067937,Ho2BiO2,0.0
mp-1640,Ho2C,0.0
mp-2332,Ho2C3,0.0
mp-1205581,Ho2CdCu2,0.0
mp-1184627,Ho2CdHg,0.0
mp-863651,Ho2CdIn,0.0
mp-863652,Ho2CdOs,0.0
mp-1206107,Ho2CdPd2,0.0
mp-1204922,Ho2Co12Ni5,0.0
mp-3706,Ho2Co12P7,0.0
mp-1205546,Ho2Co2I,0.0
mp-977345,Ho2Co3Si5,0.0
mp-976597,Ho2Co7B3,0.0
mp-1080818,Ho2CoGe2,0.0
mp-864696,Ho2CoOs,0.0
mp-1184724,Ho2CoRu,0.0
mp-1205777,Ho2CoSi2,0.0
mp-8499,Ho2Cr2C3,0.0
mp-1212724,Ho2Cu(WO4)4,0.0
mp-1203055,Ho2Cu4Br13N3,0.0
mp-1184699,Ho2CuIr,0.0
mp-754263,Ho2CuO4,0.0
mp-1184585,Ho2CuOs,0.0
mp-983410,Ho2CuPd,0.0
mp-1184717,Ho2CuPt,0.0
mp-867283,Ho2CuRu,0.0
mp-973788,Ho2CuTc,0.0
mp-1191181,Ho2Fe12P7,0.0
mp-14698,Ho2Fe14B,0.0
mp-571245,Ho2Fe14C,0.0
mp-1196975,Ho2Fe17,0.0
mp-1224201,Ho2Fe17C,0.0
mp-1224177,Ho2Fe17C2,0.0
mp-1190608,Ho2Fe17C3,0.0
mp-1212422,Ho2Fe17H3,0.0
mp-1212403,Ho2Fe17N3,0.0
mp-1025316,Ho2Fe2Si2C,0.0
mp-1200585,Ho2Fe3Si5,0.0
mp-1224140,Ho2Fe4Si9,0.0
mp-1197249,Ho2Fe5Co12,0.0
mp-1212352,Ho2FeAs2O,0.0
mp-1207028,Ho2FeSi2,0.0
mp-1224208,Ho2Ga3(Fe7C)2,0.0
mp-1224004,Ho2Ga3Cu,0.0
mp-1224158,Ho2Ga3Fe,0.0
mp-1224099,Ho2Ga3Ni,0.0
mp-1224299,Ho2Ga4Fe13C2,0.0
mp-4513,Ho2Ga8Co,0.0
mp-1102211,Ho2Ga8Fe,0.0
mp-1184662,Ho2GaAg,0.0
mp-1184603,Ho2GaOs,0.0
mp-1223927,Ho2GaRu,0.0
mp-973592,Ho2Ge2O5,0.0
mp-15827,Ho2Ge2Os,0.0
mp-10308,Ho2Ge2Rh,0.0
mp-1205791,Ho2Ge2Ru,0.0
mp-10862,Ho2Ge6Pd,0.0
mp-1184674,Ho2Hf2O5,0.0
mp-1184614,Ho2HgOs,0.0
mp-20686,Ho2In,0.0
mp-1223982,Ho2In3Cu,0.0
mp-1095593,Ho2In8Co,0.0
mp-865297,Ho2InAg,0.0
mp-1080710,Ho2InAu2,0.0
mp-12434,Ho2InGe2,0.0
mp-1184643,Ho2InHg,0.0
mp-1068024,Ho2InNi2,0.0
mp-1184630,Ho2InOs,0.0
mp-7241,Ho2InPd2,0.0
mp-1184595,Ho2IrAu,0.0
mp-1184593,Ho2IrPd,0.0
mp-864625,Ho2IrRh,0.0
mp-866111,Ho2IrRu,0.0
mp-863701,Ho2Mg,0.0
mp-1212419,Ho2Mg3Ge4,0.0
mp-867277,Ho2MgAl,0.0
mp-1184624,Ho2MgCd,0.0
mp-1205563,Ho2MgCu2,0.0
mp-1184629,Ho2MgGa,0.0
mp-863723,Ho2MgGe2,0.0
mp-977392,Ho2MgIn,0.0
mp-1205562,Ho2MgNi2,0.0
mp-1184616,Ho2MgOs,0.0
mp-1184690,Ho2MgRu,0.0
mp-1205678,Ho2MgSi2,0.0
mp-1184677,Ho2MgTc,0.0
mp-1184590,Ho2MgTl,0.0
mp-1192228,Ho2Mn12P7,0.0
mp-1212558,Ho2Mn17C3,0.0
mp-505335,Ho2Mn3Si5,0.0
mp-983409,Ho2MnOs,0.0
mp-1224038,Ho2MnRuO7,0.0
mp-5051,Ho2Mo2C3,0.0
mp-1201150,Ho2N3,0.0
mp-1202575,Ho2Nb3Ge4,0.0
mp-1191795,Ho2Ni12As7,0.0
mp-28412,Ho2Ni12P7,0.0
mp-1202187,Ho2Ni17,0.0
mp-1205259,Ho2Ni22C3,0.0
mp-3398,Ho2Ni2Pb,0.0
mp-1078261,Ho2Ni2Sn,0.0
mp-8787,Ho2NiAs2,0.0
mp-12987,Ho2NiGe6,0.0
mp-977379,Ho2NiIr,0.0
mp-1184689,Ho2NiRu,0.0
mp-1211920,Ho2NiRuO6,0.0
mp-1223952,Ho2NiSb4,0.0
mp-863736,Ho2OsAu,0.0
mp-1212373,Ho2OsC2,0.0
mp-863729,Ho2OsPd,0.0
mp-976939,Ho2OsPt,0.0
mp-1184577,Ho2OsRh,0.0
mp-866110,Ho2OsRu,0.0
mp-1224115,Ho2P7Rh12,0.0
mp-1184810,Ho2Pa2O5,0.0
mp-973314,Ho2PdRh,0.0
mp-861941,Ho2PdRu,0.0
mp-1102104,Ho2Pt,0.0
mp-1025320,Ho2Re2Si2C,0.0
mp-1204182,Ho2Re3Si5,0.0
mp-1204735,Ho2ReB6,0.0
mp-1184737,Ho2ReC2,0.0
mp-30889,Ho2Ru2O7,0.0
mp-973270,Ho2RuAu,0.0
mp-1184663,Ho2RuPt,0.0
mp-861965,Ho2RuRh,0.0
mp-780448,Ho2Sb2O7,1.8318
mp-11140,Ho2Sb5,0.0
mp-1067935,Ho2SbO2,0.0
mp-1212379,Ho2Sc3Si4,0.0
mp-1212362,Ho2Si3Pd,0.0
mp-17485,Ho2Si3Rh,0.0
mp-1105923,Ho2Si4Mo3,0.0
mp-15206,Ho2Si5Ni3,0.0
mp-1212337,Ho2Si5Rh3,0.0
mp-1223968,Ho2SiGe,0.0
mp-1188971,Ho2Sn5Rh3,0.0
mp-1188895,Ho2SnAu2,0.0
mp-1105026,Ho2Te5,0.0
mp-510084,Ho2Ti3Si4,0.0
mp-861993,Ho2TlAg,0.0
mp-861994,Ho2TlCd,0.0
mp-1184618,Ho2TlHg,0.0
mp-1184644,Ho2TlIn,0.0
mp-1184628,Ho2TlZn,0.0
mp-30713,Ho2Zn17,0.0
mp-1184634,Ho2ZnAg,0.0
mp-1184617,Ho2ZnAu,0.0
mp-1184642,Ho2ZnCu,0.0
mp-1184635,Ho2ZnGa,0.0
mp-1184637,Ho2ZnHg,0.0
mp-861600,Ho2ZnIn,0.0
mp-982730,Ho2ZnIr,0.0
mp-861598,Ho2ZnOs,0.0
mp-1184649,Ho2ZnPd,0.0
mp-1184686,Ho2ZnRh,0.0
mp-867320,Ho2ZnRu,0.0
mp-1184673,Ho2ZnTc,0.0
mp-567670,Ho3(AgSn)4,0.0
mp-1212256,Ho3(Al3Os)4,0.0
mp-1212260,Ho3(Al3Ru)4,0.0
mp-30791,Ho3(AlNi3)2,0.0
mp-1212440,Ho3(Co2Sn)4,0.0
mp-1078740,Ho3(CoGe2)2,0.0
mp-3683,Ho3(CuGe)4,0.0
mp-31423,Ho3(CuSi)4,0.0
mp-1101850,Ho3(CuSn)4,0.0
mp-1206899,Ho3(FeGe)4,0.0
mp-1224194,Ho3(Ga2Cu)2,0.0
mp-1191722,Ho3(GaNi3)2,0.0
mp-3354,Ho3(GePd)4,0.0
mp-1212370,Ho3(GeRh)2,0.0
mp-976397,Ho3(In2Co)2,0.0
mp-1224476,Ho3(NiRu2)2,0.0
mp-1212386,Ho3(P3Pd10)2,0.0
mp-1212316,Ho3(SbPd2)4,0.0
mp-1212354,Ho3(Si3Pd10)2,0.0
mp-1199895,Ho3(Si3Ru)4,0.0
mp-1191275,Ho3(SiNi3)2,0.0
mp-1106135,Ho3Al2,0.0
mp-1224531,Ho3Al2(Ni3H4)2,0.0
mp-1017577,Ho3AlN,0.0
mp-1191645,Ho3AlNi8,0.0
mp-1184710,Ho3As,0.0
mp-1184578,Ho3Bi,0.0
mp-1202754,Ho3C4,0.0
mp-622565,Ho3Co,0.0
mp-1212311,Ho3Co2Si3,0.0
mp-1212314,Ho3Co2Si7,0.0
mp-1198318,Ho3Co4Ge13,0.0
mp-31046,Ho3CrB7,0.0
mp-17486,Ho3CuSiS7,1.828
mp-1184718,Ho3Er,0.0
mp-1224021,Ho3Er3MnBi2,0.0
mp-1224196,Ho3Er9(MnBi2)2,0.0
mp-1198423,Ho3Fe29,0.0
mp-1212296,Ho3Fe2Si3,0.0
mp-1192262,Ho3FeB7,0.0
mp-1184660,Ho3Ga,0.0
mp-1197194,Ho3Ga2,0.0
mp-1197590,Ho3Ga5,0.0
mp-1104277,Ho3Ga8Ir3,0.0
mp-1104770,Ho3Ga8Rh3,0.0
mp-1104210,Ho3Ga9Pd2,0.0
mp-1104106,Ho3Ga9Pt2,0.0
mp-1200030,Ho3GaNi,0.0
mp-1199072,Ho3Ge13Ir4,0.0
mp-1202254,Ho3Ge13Os4,0.0
mp-1202484,Ho3Ge13Rh4,0.0
mp-1202131,Ho3Ge13Ru4,0.0
mp-29118,Ho3Ge3Ir2,0.0
mp-30172,Ho3Ge3Ru2,0.0
mp-1675,Ho3Ge4,0.0
mp-863737,Ho3In,0.0
mp-1188109,Ho3In5,0.0
mp-10356,Ho3InC,0.0
mp-31057,Ho3InN,0.0
mp-1189120,Ho3Ir,0.0
mp-1198319,Ho3Ir2,0.0
mp-973689,Ho3Lu,0.0
mp-1224013,Ho3Mg,0.0
mp-1224174,Ho3Mn3Ga2Ge,0.0
mp-567416,Ho3Mn3Ga2Si,0.0
mp-1191455,Ho3MnB7,0.0
mp-1080523,Ho3Ni2,0.0
mp-1190282,Ho3NiGe2,0.0
mp-1184795,Ho3Np,0.0
mp-1190011,Ho3Os,0.0
mp-973992,Ho3Pb,0.0
mp-1206983,Ho3PbC,0.0
mp-1104206,Ho3Pd4,0.0
mp-1103863,Ho3Pt4,0.0
mp-1006115,Ho3Pu,0.0
mp-973395,Ho3ReB7,0.0
mp-558969,Ho3ReO7,0.0
mp-1200753,Ho3Rh2,0.0
mp-1224058,Ho3SOF5,3.6406000000000014
mp-982018,Ho3Sb,0.0
mp-1184707,Ho3Sc,0.0
mp-1224056,Ho3Sc2S7,0.0
mp-1201436,Ho3Si11Pt23,0.0
mp-1201803,Ho3Si13Ir4,0.0
mp-1202418,Ho3Si13Os4,0.0
mp-1105133,Ho3Si2(SnRh3)3,0.0
mp-1224909,Ho3Si4,0.0
mp-1079218,Ho3Sn7,0.0
mp-7114,Ho3SnC,0.0
mp-1184722,Ho3Th,0.0
mp-20978,Ho3TlC,0.0
mp-1207357,Ho3TlS6,0.0
mp-982619,Ho3Tm,0.0
mp-981545,Ho3Zr,0.0
mp-15238,Ho4C5,0.0
mp-570404,Ho4CdCo,0.0
mp-1212283,Ho4CdIr,0.0
mp-1212299,Ho4CdNi,0.0
mp-1212312,Ho4CdPd,0.0
mp-1212306,Ho4CdPt,0.0
mp-569478,Ho4CdRh,0.0
mp-1212427,Ho4Co,0.0
mp-1224199,Ho4Co3,0.0
mp-1202390,Ho4CoB13,0.0
mp-1224079,Ho4CrS7,0.0
mp-1224093,Ho4CrSe7,0.0
mp-1224054,Ho4Cu5P7,0.0
mp-1213581,Ho4Fe,0.0
mp-1224868,Ho4Fe29Si5,0.0
mp-1224163,Ho4Fe5Si3,0.0
mp-1224253,Ho4FeSn8,0.0
mp-1106297,Ho4Ga12Fe,0.0
mp-1106064,Ho4Ga12Ni,0.0
mp-1212232,Ho4Ga12Pd,0.0
mp-1212255,Ho4Ga12Pt,0.0
mp-581730,Ho4Ga21Ni10,0.0
mp-1189529,Ho4Ge6Ir7,0.0
mp-30171,Ho4Ge9Ir13,0.0
mp-1223826,Ho4HfAl15,0.0
mp-13510,Ho4In(NiGe2)2,0.0
mp-1203845,Ho4In20Ni11,0.0
mp-1197008,Ho4In5S13,0.0
mp-567479,Ho4InIr,0.0
mp-570015,Ho4InRh,0.0
mp-1212267,Ho4Ir,0.0
mp-1212342,Ho4MgCo,0.0
mp-1212329,Ho4MgGe4,0.0
mp-1212308,Ho4MgNi,0.0
mp-1212304,Ho4MgRh,0.0
mp-1212321,Ho4MgRu,0.0
mp-1212417,Ho4Mn,0.0
mp-1212334,Ho4Ni,0.0
mp-863728,Ho4Ni13C4,0.0
mp-1202173,Ho4NiB13,0.0
mp-2124,Ho4Sb3,0.0
mp-1223829,Ho4Si3Ge,0.0
mp-1223846,Ho4SiGe3,0.0
mp-1224008,Ho4US7,0.0
mp-676881,Ho4Zr3O12,4.150399999999999
mp-1223914,Ho4ZrAl15,0.0
mp-1203317,Ho5(Co2Si7)2,0.0
mp-643659,Ho5(Ge5Ir2)2,0.0
mp-1201660,Ho5(Ge5Os2)2,0.0
mp-21816,Ho5(Ge5Rh2)2,0.0
mp-1212216,Ho5(GeSb)2,0.0
mp-1212246,Ho5(In2Pt)2,0.0
mp-29937,Ho5(ReO6)2,0.0
mp-1205124,Ho5(Si5Ir2)2,0.0
mp-1212227,Ho5(SiB4)2,0.0
mp-1212206,Ho5(SiSb)2,0.0
mp-1224547,Ho5(Sn3Rh)6,0.0
mp-1196727,Ho5Bi2Pd,0.0
mp-31465,Ho5Bi3,0.0
mp-1188851,Ho5BiAu2,0.0
mp-1212221,Ho5BiPd2,0.0
mp-1212213,Ho5BiPt2,0.0
mp-1213127,Ho5Cl11,0.0
mp-1224618,Ho5Co19P12,0.0
mp-570022,Ho5Co2Bi,0.0
mp-510594,Ho5CoSb2,0.0
mp-1212275,Ho5CuPb3,0.0
mp-1196886,Ho5Ga3,0.0
mp-1106032,Ho5Ge3,0.0
mp-1105990,Ho5Ge3C,0.0
mp-1196008,Ho5Ge4,0.0
mp-1188417,Ho5In3,0.0
mp-1197997,Ho5Ir3,0.0
mp-1184701,Ho5Mg,0.0
mp-1192487,Ho5Mg24,0.0
mp-16375,Ho5Ni19P12,0.0
mp-1189131,Ho5Ni2Bi,0.0
mp-10500,Ho5Ni2Sb,0.0
mp-1212503,Ho5NiBi2,0.0
mp-568340,Ho5NiPb3,0.0
mp-640383,Ho5NiSb2,0.0
mp-1199917,Ho5P12Ru19,0.0
mp-30730,Ho5Pb3,0.0
mp-1198999,Ho5Pt4,0.0
mp-30734,Ho5Rh3,0.0
mp-1102510,Ho5S7,0.0
mp-1200650,Ho5Sb2Pd,0.0
mp-2681,Ho5Sb3,0.0
mp-1181047,Ho5SbAu2,0.0
mp-1212203,Ho5SbPd2,0.0
mp-1212195,Ho5SbPt2,0.0
mp-13236,Ho5Si3,0.0
mp-13235,Ho5Si3B,0.0
mp-30735,Ho5Sn3,0.0
mp-1178188,Ho5Ti5O17,0.0
mp-1181055,Ho5Tl3,0.0
mp-1205128,Ho5Zr3(Ni4As3)4,0.0
mp-1224168,Ho6Ag(GeS7)2,0.0
mp-1199361,Ho6Al43Cr4,0.0
mp-1212412,Ho6Al43V4,0.0
mp-1204202,Ho6Al43W4,0.0
mp-1193845,Ho6Al7Cu16,0.0
mp-975589,Ho6Bi2Rh,0.0
mp-1212234,Ho6Co2Sn,0.0
mp-30922,Ho6CoBi2,0.0
mp-976064,Ho6CoTe2,0.0
mp-504496,Ho6Fe16O,0.0
mp-2759,Ho6Fe23,0.0
mp-30328,Ho6FeBi2,0.0
mp-4416,Ho6FeSb2,0.0
mp-11844,Ho6GaCo2,0.0
mp-1189374,Ho6GaNi2,0.0
mp-1228098,Ho6Ge11,0.0
mp-1212180,Ho6InCo2,0.0
mp-669648,Ho6Mn23,0.0
mp-1212458,Ho6Mn4Al43,0.0
mp-23047,Ho6MnBi2,0.0
mp-1079239,Ho6MnTe2,0.0
mp-1212699,Ho6N8O33,0.0007000000000001452
mp-1212289,Ho6Ni20P13,0.0
mp-1189081,Ho6Ni2Sn,0.0
mp-1212360,Ho6Ti4Al43,0.0
mp-1192847,Ho6Zn23,0.0
mp-1190610,Ho7(TeAu)2,0.0
mp-5321,Ho7Co6Sn23,0.0
mp-567566,Ho7FeI12,0.0
mp-570940,Ho7In(CoGe3)4,0.0
mp-1224189,Ho7Mg3Rh2,0.0
mp-1106336,Ho7Rh3,0.0
mp-1224112,Ho8(AlGe3)3,0.0
mp-567204,Ho8Mg12Zn61,0.0
mp-1223897,Ho8Sb3O8,0.0
mp-1223940,Ho9Er3(MnBi2)2,0.0
mp-1195820,Ho9Sb5CO4,0.0
mp-2778,HoAg,0.0
mp-2120,HoAg2,0.0
mp-7093,HoAgGe,0.0
mp-864775,HoAgHg2,0.0
mp-31449,HoAgPb,0.0
mp-4311,HoAgSn,0.0
mp-1223789,HoAgSn2,0.0
mp-1188420,HoAl,0.0
mp-391,HoAl2,0.0
mp-16503,HoAl2Ni,0.0
mp-898,HoAl3,0.0
mp-1212105,HoAl3(BO3)4,5.6397999999999975
mp-1212127,HoAl3Ni2,0.0
mp-16504,HoAl4Ni,0.0
mp-16621,HoAl7Au3,0.0
mp-1223779,HoAl7Fe5,0.0
mp-861934,HoAlAg2,0.0
mp-1102992,HoAlAu,0.0
mp-1078489,HoAlCu,0.0
mp-1223972,HoAlCu4,0.0
mp-1223788,HoAlGa,0.0
mp-1077785,HoAlGe,0.0
mp-2909,HoAlNi,0.0
mp-1223899,HoAlNi4,0.0
mp-1102737,HoAlPd,0.0
mp-1103032,HoAlPt,0.0
mp-1212088,HoAlRh,0.0
mp-1206025,HoAlSi,0.0
mp-295,HoAs,0.0
mp-1184714,HoAs3,0.0
mp-8952,HoAsPd,0.0
mp-1095550,HoAsPt,0.0
mp-1007666,HoAu,0.0
mp-990,HoAu2,0.0
mp-30386,HoAu3,0.0
mp-30387,HoAu4,0.0
mp-1199447,HoAu6,0.0
mp-1104585,HoB12,0.0
mp-2267,HoB2,0.0
mp-15603,HoB2C,0.0
mp-1072182,HoB2Ir3,0.0
mp-1189925,HoB2Os,0.0
mp-567969,HoB2Rh2C,0.0
mp-1181033,HoB2Ru,0.0
mp-2985,HoB2Ru3,0.0
mp-1205558,HoB3Mo,0.0
mp-974392,HoB4Ru,0.0
mp-571491,HoB6,0.0
mp-504877,HoB7Mo3,0.0
mp-1025084,HoBC,0.0
mp-3693,HoBPd3,0.0
mp-3710,HoBRh3,0.0
mp-1193889,HoBe13,0.0
mp-1223886,HoBeCu4,0.0
mp-1184610,HoBeO3,0.0
mp-22866,HoBi,0.0
mp-1239078,HoBi2C,0.0
mp-1184746,HoBi3,0.0
mp-1009132,HoBiPd,0.0
mp-30455,HoBiPt,0.0
mp-1205953,HoBiRh,0.0
mp-1184741,HoBr2,0.0
mp-11301,HoCd2,0.0
mp-1225485,HoCd6,0.0
mp-864904,HoCdAg2,0.0
mp-1205778,HoCdAu,0.0
mp-977415,HoCdAu2,0.0
mp-977413,HoCdHg2,0.0
mp-1223868,HoCdIn,0.0
mp-1077332,HoCdNi4,0.0
mp-864760,HoCdPd2,0.0
mp-864673,HoCdPt2,0.0
mp-864641,HoCl2,0.0
mp-2396,HoCo2,0.0
mp-5313,HoCo3B2,0.0
mp-1018723,HoCo3Cu2,0.0
mp-1223880,HoCo3Ni2,0.0
mp-1224463,HoCo3P2,0.0
mp-1223858,HoCo4Cu,0.0
mp-1223872,HoCo4Ni,0.0
mp-2435,HoCo5,0.0
mp-1199038,HoCo5P3,0.0
mp-1212117,HoCoB4,0.0
mp-20906,HoCoC,0.0
mp-9241,HoCoC2,0.0
mp-1095599,HoCoGe,0.0
mp-1078737,HoCoGe2,0.0
mp-1223910,HoCoNi,0.0
mp-24875,HoCoO3,0.0
mp-1223854,HoCoRu,0.0
mp-510688,HoCoSi,0.0
mp-8743,HoCoSi2,0.0
mp-5601,HoCoSn,0.0
mp-542403,HoCoSn2,0.0
mp-1024999,HoCr2Si2C,0.0
mp-1971,HoCu,0.0
mp-30584,HoCu2,0.0
mp-1024987,HoCu4Ag,0.0
mp-1024994,HoCu4Au,0.0
mp-1223765,HoCu4Ni,0.0
mp-580364,HoCu5,0.0
mp-1211942,HoCu5Sn,0.0
mp-21364,HoCuAs2,0.0
mp-9389,HoCuGe,0.0
mp-1184736,HoCuO3,0.0
mp-30195,HoCuP2,0.0
mp-16750,HoCuPb,0.0
mp-21015,HoCuSb2,0.0
mp-4476,HoCuSi,0.0
mp-1024954,HoCuSn,0.0
mp-1223785,HoEr,0.0
mp-1184779,HoEr3,0.0
mp-972945,HoErAg2,0.0
mp-972984,HoErAl2,0.0
mp-972997,HoErCd2,0.0
mp-1184750,HoErCu2,0.0
mp-1184740,HoErHg2,0.0
mp-1184738,HoErIn2,0.0
mp-1184769,HoErIr2,0.0
mp-1184787,HoErMg2,0.0
mp-976343,HoErPd2,0.0
mp-976286,HoErRh2,0.0
mp-976311,HoErRu2,0.0
mp-974221,HoErTl2,0.0
mp-974253,HoErZn2,0.0
mp-1224069,HoFe11Re,0.0
mp-1926,HoFe2,0.0
mp-1207148,HoFe2SiC,0.0
mp-1106004,HoFe4(CuO4)3,0.0
mp-2812,HoFe5,0.0
mp-1200877,HoFe5P3,0.0
mp-1212115,HoFeB4,0.0
mp-1018052,HoFeC2,0.0
mp-1223978,HoFeCo,0.0
mp-1223889,HoFeCu,0.0
mp-1080783,HoFeGe2,0.0
mp-1223954,HoFeNi,0.0
mp-1223882,HoFeNi4,0.0
mp-1223925,HoFeRu,0.0
mp-1018725,HoFeSi,0.0
mp-1018073,HoGa,0.0
mp-1256,HoGa2,0.0
mp-1025433,HoGa2Ni,0.0
mp-982511,HoGa2Pd,0.0
mp-570953,HoGa3,0.0
mp-1212057,HoGa3Os,0.0
mp-1104547,HoGa3Ru,0.0
mp-30645,HoGa4Ni,0.0
mp-4856,HoGa5Co,0.0
mp-1103872,HoGa6,0.0
mp-1223950,HoGaAg,0.0
mp-1223942,HoGaAu,0.0
mp-1103576,HoGaCo,0.0
mp-11442,HoGaNi,0.0
mp-31386,HoGaPd,0.0
mp-1102757,HoGaPt,0.0
mp-865696,HoGaRh2,0.0
mp-17794,HoGe2Ir,0.0
mp-580192,HoGe2Pt,0.0
mp-1025422,HoGe3,0.0
mp-21073,HoGeIr,0.0
mp-982558,HoGeO3,0.0
mp-1190523,HoGePd,0.0
mp-1189077,HoGePd2,0.0
mp-1103105,HoGePt,0.0
mp-22670,HoGeRh,0.0
mp-22041,HoGeRu,0.0
mp-24152,HoH2,0.0
mp-981392,HoHfOs2,0.0
mp-973890,HoHfRu2,0.0
mp-1092,HoHg,0.0
mp-11461,HoHg2,0.0
mp-865259,HoHg3,0.0
mp-30728,HoIn,0.0
mp-1212252,HoIn2Pd,0.0
mp-21431,HoIn3,0.0
mp-21398,HoIn5Co,0.0
mp-12940,HoIn5Rh,0.0
mp-1224226,HoIn7Cu5,0.0
mp-30342,HoInAg2,0.0
mp-3630,HoInAu,0.0
mp-1079173,HoInCo2,0.0
mp-1024962,HoInCo4,0.0
mp-3015,HoInCu,0.0
mp-30586,HoInCu2,0.0
mp-13525,HoInIr,0.0