task_id,pretty_formula,band_gap
mp-763538,LiV4(PO4)3,1.9653
mp-763747,LiFe(PO3)4,1.4224
mp-763800,Li3Mn2(PO4)3,0.7335999999999998
mp-771502,Li5Nb2Ni5O12,0.016600000000000392
mp-771523,LiCr2O4,0.42900000000000027
mp-771525,Li3MnPCO7,3.8051
mp-771529,Li4MnV3O8,0.9354999999999998
mp-771530,LiV3O8,1.7675
mp-771535,TiV4CoO12,0.6760999999999999
mp-771540,Ti2Mn3Cr3O16,0.7849999999999999
mp-771558,Na3CoPCO7,2.8453
mp-771562,Li4TiCr5O12,0.06059999999999999
mp-771566,Lu2TeO6,1.4376999999999995
mp-771570,Sr2CaI6,3.4312
mp-771575,Li2TiMn3O8,0.7279
mp-771578,Ti3Ni3(TeO8)2,0.28169999999999984
mp-771645,Sr2CaI6,3.8432
mp-771647,La2Pt2O7,0.4388000000000005
mp-771652,Ti2Sb2O7,2.0277000000000003
mp-771698,LaAlO3,4.4777
mp-780255,Gd3NbO7,2.282
mp-780293,Dy2Ge2O7,3.455
mp-780580,LiMnPH2O5,3.3236000000000003
mp-780581,Fe4O3F5,0.5721999999999998
mp-780585,Ti(FeO2)2,1.582
mp-780597,V2(OF)3,0.9809
mp-780619,RbTaO3,4.1530000000000005
mp-780631,Li3Mn2Fe(BO3)3,2.6427
mp-780633,Ni3OF5,0.6993
mp-780635,Li4MnFe3(BO3)4,3.1573999999999995
mp-780642,Li2Co2OF6,1.0170000000000001
mp-780649,V2O3F,0.7259000000000002
mp-780688,LiCo2OF5,0.8269
mp-780721,Na4Bi2O5,2.6918
mp-780724,LiSbP2O7,3.6412
mp-780731,Li2Cu(PO3)3,1.3742
mp-780771,LiV4OF11,1.3346
mp-780775,Sr3Li3Cu3(PO4)4,1.5304000000000002
mp-780800,Fe10O11F9,0.06980000000000007
mp-780805,Fe5(OF4)2,1.1664
mp-780812,Fe10O9F11,0.6256999999999997
mp-780813,Li2Mn3(BO3)3,0.23719999999999986
mp-780814,LiFe3(OF3)2,1.8513
mp-780816,LiMn2(BO3)2,0.012900000000000134
mp-8682,Ca2SiO4,4.3558
mp-868579,V16FeO41,0.5242
mp-977569,NaH6CN2ClO2,5.0077
mp-977584,Zr2ZnAg2F14,0.3189
mp-978,Sr2Sn,0.15569999999999995
mp-978114,Sn5O6,1.7702
mp-978526,Si(H3C)4,6.4988
mp-9788,SrPS3,3.1109
mp-978840,SrLi2(SiN2)2,3.4360000000000004
mp-979340,Sr2LiTaN3F,2.9339999999999997
mp-9794,Rb2GeSe3,1.4778
mp-979414,WSCl4,1.965
mp-9993,Al2CdS4,2.4641
mvc-10994,Ca3Co2(Si2O7)2,1.467
mvc-11366,Co(SiO3)2,0.5383
mvc-11632,VBiO5,0.12879999999999994
mvc-11930,Ca3Mn2(GaO5)2,0.26139999999999985
mvc-11983,Al5(FeO4)3,1.1521
mvc-12018,Ta4Mn2Zn3O16,1.301
mvc-12100,CoP2O7,0.15579999999999994
mvc-12122,VCuO4,0.19350000000000006
mvc-12174,CrPO4,0.5295999999999998
mvc-12821,ZnCo2(P2O7)2,0.5617999999999999
mvc-12826,Ca3(CoO3)2,1.2673
mvc-12911,V4Zn(PO4)6,1.3616
mvc-13145,Zn3Cu2(AsO4)4,0.5052
mp-10165,KAlTe2,1.7037
mp-1017551,Bi2O3,0.14900000000000002
mp-1018141,BaC2,1.3754
mp-1093994,ZnSnS3,0.39000000000000057
mp-1098708,CeSe2,0.6328
mp-1100409,LiCaSb,0.6898000000000004
mp-1120759,PdSe2,1.5068
mp-1120808,Ti2ZnSn2O7,3.0416
mp-1120809,TiZnSnO4,2.8720000000000003
mp-11601,NaErO2,4.0684000000000005
mp-13305,SmSnAu,0.09699999999999953
mp-15248,K3Nb3(BO6)2,1.9128
mp-23691,Tl(BH)6,4.526999999999999
mp-25001,FePO4,2.2248
mp-29116,Ta3SeI7,0.5727000000000002
mp-504667,RbIn(WO4)2,4.6388
mp-505394,Zn(Mo4O5)2,0.1811999999999996
mp-540318,Mn3(P2O7)2,0.07800000000000007
mp-540326,CrP2O7,0.34440000000000004
mp-540419,MnPO4,0.4366
mp-557143,Tl2Cu(CO3)2,0.16129999999999978
mp-566529,Fe5(SiO4)3,2.4238
mp-570985,SiC,1.9613
mp-571550,Sb2TeSe2,0.5464000000000002
mp-572807,NdCu3Se2ClO8,0.016199999999999992
mp-5914,Li3BN2,3.3011
mp-6539,RbTiPO5,3.0134
mp-655297,K2PdN2(ClO2)2,1.7269999999999999
mp-675170,Yb3(Bi7Te12)2,0.4828999999999999
mp-684897,Ta2O5,3.0717
mp-684944,In2S3,0.4851000000000001
mp-694934,Li2TiFe(PO4)3,2.4993
mp-694940,MnAl2Sb2(PO4)6,2.4758
mp-694948,TiFeO3,1.4863999999999995
mp-694963,Sr7SmFe4(MoO6)4,0.8102
mp-694976,Sr3La7Ti2Mn8O30,0.11789999999999967
mp-695946,NiH16C4S4(N4Cl)2,0.5148000000000001
mp-697807,LiMn4P7O24,0.9027
mp-697830,Zn(FeO2)2,0.7369000000000003
mp-698585,Sr24Ni19O54,0.4546000000000001
mp-744024,K2MnH8(SO6)2,4.6128
mp-744182,CrHSe3O8,0.2698999999999999
mp-744309,NiH20Se2(NO7)2,0.5090000000000001
mp-744395,NiH18C4S6(N2O)4,2.5269
mp-745021,Sr2Mg2V3O14,0.7637999999999999
mp-745112,Sr10Fe4Co(MoO6)5,0.9554
mp-754403,ZrO2,3.7233
mp-760226,Nb3O2F5,0.6020000000000001
mp-761374,Li3V2(PO4)3,1.5122999999999998
mp-761376,Li3V2(PO4)3,2.0794
mp-761400,LiCrPO4,3.0857
mp-761497,Li2Ni(PO3)4,4.5107
mp-761521,Li3Fe(PO4)2,2.4927
mp-761529,Li6V3P8O29,0.007100000000000106
mp-761535,LiFePO4,3.6826
mp-761538,LiMnPO4,3.5981
mp-761539,LiMnPO4,2.9955
mp-761541,LiNiPO4,2.8639
mp-761542,LiMnPO4,3.6094
mp-761546,LiFeSiO4,2.7333
mp-761548,LiMnPO4,3.608800000000001
mp-761558,Li3Fe(PO4)2,1.7471
mp-761591,Li3Mn2(PO4)3,0.7835000000000001
mp-761596,Li3Mn(PO4)2,1.1737000000000002
mp-761679,Li8V3P8O29,1.2028
mp-761706,Li2CoP2O7,2.5356
mp-761773,LiSb(PO3)4,3.7771
mp-761774,Li8V3P8O29,0.6353
mp-762786,Li3Fe2(SiO4)2,1.3724
mp-763864,Li2VCr(P2O7)2,2.1705
mp-763936,MnOF,0.026399999999999983
mp-763969,MnOF,0.16690000000000005
mp-764743,Li6MnV3(PO4)6,0.18230000000000013
mp-764814,Ni3(PO4)2,3.1208
mp-764875,Fe3(PO4)2,3.0130000000000003
mp-764887,Co3(PO4)2,2.5052000000000003
mp-765419,Li6V5O12,0.6962000000000002
mp-765431,LiVOF2,1.4401
mp-765659,Li2Co4OF8,1.3839
mp-766117,Sn2N2O,0.5638000000000005
mp-768222,BaY2F8,6.9301
mp-770341,Li4AlCr3O8,3.0815999999999995
mp-770581,MgMnO3,0.536
mp-771572,NbV3O8,1.1509999999999998
mp-772589,Li2Fe(Si2O5)2,3.0789
mp-773377,LiFePO4,3.4778999999999995
mp-774268,LiFePO4,3.1003000000000003
mp-774269,LiFePO4,2.5969
mp-774345,Li2Mn2(PO4)3,0.8685
mp-774367,Li2Cr(PO3)4,3.3655
mp-774524,Li3La5Ti6Nb2O26,1.9064
mp-774530,Ba4Ti11O26,2.2142000000000004
mp-774757,Na3PH12CO11,4.1942
mp-774810,RbPHO3F,5.189
mp-774948,V7(WO5)6,0.3452000000000002
mp-774954,Li3MnV(PO4)3,0.1180000000000001
mp-775689,Na4Bi2C4SO16,0.39070000000000027
mp-776661,NbV3O10,1.5159
mp-777016,LiFeF3,2.6239999999999997
mp-777029,LiV2(PO4)3,0.002000000000000224
mp-777047,LiTmO2,4.6182
mp-777243,Li5Mn8(BO3)8,0.4400999999999997
mp-777246,LiMn2(BO3)2,0.353
mp-777436,Li2MnVP2(O4F)2,0.08630000000000004
mp-777473,Li5Mn8(BO3)8,0.4197
mp-777496,Li32Ti13Cr3O48,1.2869000000000002
mp-777509,Li2Cr(PO3)4,3.4608
mp-777523,Li32Ti3Cr13O48,1.1183999999999998
mp-777524,Li32Ti3Cr13O48,0.9362
mp-777612,Li3Mn4(BO3)4,0.4278000000000002
mp-777614,Li32Ti3Cr13O48,1.1043000000000005
mp-777617,LiV2OF5,1.6704
mp-777671,Li7Mn8(BO3)8,0.41310000000000013
mp-777709,Li32Ti13Cr3O48,1.4038
mp-777714,Na4CoO4,1.2982
mp-777715,Li32Ti3Cr13O48,1.0789
mp-777726,Mn6O5F7,0.1584000000000001
mp-777910,Li32Ti3Cr13O48,1.0519000000000005
mp-780829,Mn3OF5,0.4450000000000001
mp-8378,Tl3SbS4,1.5515999999999996
mp-849230,BaP4O11,5.1309000000000005
mp-849252,Li2VF5,2.0328
mp-849265,LiSbP2O7,3.3847000000000005
mp-849423,Li2MnVP2(HO5)2,0.4814000000000002
mp-849427,Li3ZnFe2(PO4)3,3.4441
mp-849428,Li2Mn2(SiO3)3,3.0971
mp-849488,LiMn2(BO3)2,0.28990000000000005
mp-850114,Fe10O9F11,0.7122999999999999
mp-850161,LiFeP2O7,1.7432
mp-850165,LiFeP2O7,1.4128
mp-850176,LiFeP2O7,1.7515
mp-850177,LiFeP2O7,1.5473
mp-850234,Li3V3P8O29,0.8782
mp-850236,Li3V3P8O29,0.8892
mp-850246,Li3Mn4(P2O7)4,0.05459999999999998
mp-850261,Li5Mn4(P2O7)4,0.20009999999999994
mp-850265,LiMnP2O7,0.4399
mp-850269,Li7Mn4(P2O7)4,0.15290000000000006
mp-868354,Li3MnV3O8,0.4072999999999998
mp-961651,ZrFeSe,0.16250000000000053
mp-961657,YNiP,0.7214
mp-961659,TiSiPd,0.7690000000000001
mp-961660,TiFeSe,0.9869999999999992
mp-961663,SrTePd,0.32149999999999945
mp-961673,TiFeTe,0.9640000000000004
mp-961693,ZrInAu,0.4532000000000007
mp-961697,ScGeAu,0.2804000000000002
mvc-12111,MgV2O4,1.4861000000000004
mvc-14182,ZnCuF4,0.8534999999999999
mvc-14755,YCuF5,0.24360000000000004
mvc-15076,Zn(FeO2)2,1.8753
mvc-3781,MoF5,1.9257
mp-1025461,PrBrO2,3.1972
mp-1025511,NdBrO2,3.2021
mp-1026979,TeMo2Se2S,0.2993000000000001
mp-1027110,Te2MoWS2,0.6397999999999997
mp-1040512,Nb3SiO10,0.03079999999999994
mp-1042581,Mg(MoO2)2,1.3003
mp-1045304,Zn(SbO3)2,1.0979999999999994
mp-1195153,Tb2CuH4(SO6)2,0.5169999999999999
mp-1195874,MgCO6,0.4029
mp-1200190,PrSiP3,0.2508999999999997
mp-1210317,Rb2Mo3P3O17,2.3237
mp-1219343,ScCuSe2,0.6673
mp-15777,Zn(GaTe2)2,1.0156999999999998
mp-17747,Y3CuSnS7,1.4826000000000006
mp-19052,K3VO4,3.6294
mp-22512,Sr2In2O5,0.9985
mp-22955,LiIO3,3.652200000000001
mp-28558,RbGeBr3,1.9935
mp-294,UO3,1.8558000000000003
mp-2948,Si2N2O,4.197399999999999
mp-3143,Na2SO4,4.9638
mp-3154,Sm3Sb5O12,3.1334
mp-32760,LiP5,0.5134999999999996
mp-32884,Ag2S,1.2997
mp-3756,SmTaO4,4.0324
mp-3782,Nd3Sb5O12,3.1547000000000005
mp-3792,YAlO3,5.5402
mp-3795,NaZnF3,3.7676
mp-38125,Sm2CdSe4,1.0448000000000004
mp-5142,Sn3Te3Ir2,0.3959999999999999
mp-5214,TiTe3O8,2.7258
mp-5274,ThTi2O6,2.9199
mp-5403,Rb2TiO3,3.8598
mp-5637,SrZnO2,2.0793
mp-5652,Y2Si2O7,4.8042
mp-5737,TbCuS2,1.1823000000000006
mp-5857,MgAl2O4,4.9766
mp-5960,Ca3UO6,2.1498000000000004
mp-6019,Sr2YNbO6,3.2307
mp-6044,Sr6B(PO4)5,4.8124
mp-605,ZrTe5,0.04429999999999978
mp-6050,AgCSN,2.685
mp-6055,Sm2SiTeO4,2.0006000000000004
mp-6066,NaTaGeO5,3.35
mp-6068,Sr2TbRuO6,0.18510000000000024
mp-608320,NbNi2BO6,2.7318
mp-608621,Nb2NiO6,2.9339
mp-6125,RbTi2(PO4)3,2.6058000000000003
mp-6160,Rb2PO3F,4.313
mp-616127,Ni(AuF4)2,1.6437
mp-619611,Ca2FeWO6,0.9478999999999996
mp-619843,Nb2FeO6,2.2185
mp-6226,NaSn4(PO4)3,3.7411
mp-675578,Li2FeBr4,0.029099999999999907
mp-675618,Sr2RuO6,0.419
mp-675770,Nd3U2O10,0.2019000000000002
mp-6761,NaTi2(PO4)3,2.4429
mp-684816,K2NaNb(OF2)2,2.3831
mp-705411,WO3,1.4893
mp-705416,Fe3O4,0.9833000000000004
mp-705592,Al2FeO4,0.043799999999999166
mp-758054,LiAgF4,1.0302
mp-759069,B(HO)3,6.0809
mp-760762,NbOF3,3.6434
mp-762174,Ti3Fe2Co(PO4)6,0.05489999999999995
mp-762183,LiFeCO4,2.2213000000000003
mp-762187,LiMnCO4,1.2789
mp-7622,KSO4,3.5193000000000003
mp-762220,LiCuPO4,0.3173999999999997
mp-762222,Li2CuF4,0.975
mp-762239,Mn(CO3)2,1.2556999999999998
mp-762245,LiFe2(BO3)2,1.9749
mp-762247,LiCoSiO4,0.7024999999999999
mp-762249,V(CO3)2,1.5659999999999998
mp-762644,LiFeSiO4,3.0816
mp-766917,LiVF6,3.1549
mp-768866,Sm2Cu2O5,0.35530000000000017
mp-769338,SbN3(O3F)3,0.3221000000000003
mp-769769,Li2AlCoO4,1.6394
mp-769921,Ta2Mn2O7,1.9710999999999996
mp-778304,Mn3NiO8,1.1403
mp-778685,LiFe(SiO3)2,3.273
mp-779145,Lu3TaO7,3.5083
mp-7792,YScS3,1.7711
mp-779273,Li3Fe(Si2O5)3,3.4543
mp-853204,Li2MnSiO4,2.9243
mp-853252,Co6OF11,0.8302
mp-861500,PrB2HF10,7.8433
mp-862718,SrSn(PO4)2,3.6041
mp-862754,PrBS3,2.4383000000000004
mp-863423,SrGa12O19,1.8584
mp-863427,Li3Si2BiO7,3.2388000000000003
mp-9306,Sr2ZnN2,0.7361
mp-975,SF6,5.9124
mp-975031,RbBeH3,3.3379
mp-975103,RbMgPO4,4.5457
mp-975336,KCSN,4.2439
mp-9854,YP5,0.13399999999999945
mp-985570,SiO2,5.599
mp-985572,LiAg(CO2)2,2.5039
mp-985590,SiO2,5.5158999999999985
mp-985594,NaAg(CO2)2,2.5052
mp-985608,Nd2O5,2.8438000000000003
mp-989229,MgH8(ClO6)2,5.1722
mp-989400,Rb2NaGaF6,5.9026
mp-989455,LaWN3,0.1299999999999999
mp-989466,B2(CN2)3,1.9254999999999995
mvc-13644,MgSbO3,0.7576
mvc-13702,Zn2FeSbO6,1.7726000000000002
mvc-13703,VZn2SbO6,1.2046
mvc-14167,WF5,3.1906000000000003
mvc-14217,MoF5,2.0994
mvc-14226,ZnWF5,2.5517000000000003
mvc-14249,Ca3Ni2(WO6)2,0.029299999999999993
mvc-14253,Ca3Mn2O7,0.09099999999999996
mvc-14279,ZnSbF5,3.7056
mvc-14361,MgCuF5,0.1257999999999999
mvc-14378,Mg(FeO2)2,1.6624
mvc-14518,MgMn2O4,0.5219999999999998
mvc-14524,PrCr2O6,0.3166000000000002
mvc-14697,SbF5,3.6793
mvc-14774,Ti2ZnS5,0.7138
mvc-15303,ReSbO6,1.7216
mvc-15487,Mg2SbWO6,1.0529000000000002
mvc-15492,Zn2CoSbO6,0.6715
mvc-15519,ZnCoO2,1.0652
mvc-15567,MgFeO2,1.5299
mvc-15568,ZnNiO2,1.5052
mvc-15590,MnZnO2,0.08970000000000011
mvc-15620,Zn2CrSbO6,2.0248
mvc-15684,TiZnF6,4.2525
mvc-15700,TeF6,4.4438
mvc-15767,YSnO3,2.0970999999999997
mvc-15779,TaF5,5.0207
mvc-15798,BiF5,1.8064
mvc-15835,ZnWF6,3.7143
mvc-15842,ZnCoF6,0.7153
mvc-15844,MgSbF5,3.2384
mvc-15870,MgBiF5,4.2701
mvc-15884,NiF4,0.9929
mvc-15892,MoF5,0.8478
mp-6252,Sr2CuTeO6,0.20910000000000029
mp-6259,SrLi2Ta2O7,2.1666
mp-628327,Fe2O3,1.4926999999999997
mp-6326,LiAlSiO4,4.8474
mp-632711,InHO2,1.8374999999999997
mp-633496,VCuHPbO5,0.1259999999999999
mp-6340,LiAl(SiO3)2,5.3683999999999985
mp-634430,VO2,1.0623000000000002
mp-634805,ScF3,1.7705
mp-635713,TiZnO3,3.1673
mp-6358,NaTiPO5,3.0398000000000005
mp-676284,YAgSe2,0.7142
mp-676341,Na2UF6,0.2492000000000001
mp-676517,La3U2O10,0.21050000000000055
mp-705894,RbSi2Mo3P6O25,0.3645000000000001
mp-7061,NdZnAsO,0.8621999999999996
mp-706250,Al2FeO4,0.5154000000000005
mp-706292,NaMn2V3(PbO6)2,2.0934000000000004
mp-762270,Li2Cu2F5,0.07329999999999992
mp-762289,Li2P2WO8,3.2535
mp-762298,Li2CrSiO4,1.9818
mp-762299,LiCoCO4,0.8183
mp-762304,BiOF,3.2204999999999995
mp-762307,Y7HoO12,4.0494
mp-762312,Li3CrSi2O7,2.7976
mp-762316,Li2CrSiO4,1.2517
mp-762351,Li4Ti7O16,2.4529000000000005
mp-769564,NaVPCO7,1.5078
mp-770189,Gd2TiO5,2.8642
mp-770281,Li24Mn7Cr5O36,1.1079
mp-770284,SmTaO4,3.6104
mp-770287,Li3Sn(BO3)2,0.07860000000000023
mp-770288,Li3B2SbO6,2.7077
mp-770300,Li24Mn5Cr7O36,1.0389
mp-770301,Li24Mn5Cr7O36,1.0341
mp-779343,LiMnF4,0.3525999999999999
mp-779593,Na5LaO4,1.94
mp-779698,ZnTe2O5,3.0118
mp-779803,Li32Mn13Cr3O48,1.2155
mp-779823,Li3Cr(Si2O5)3,3.8688
mp-863658,PmCl3,3.5399
mp-863860,LiCoPO4,2.904
mp-863878,VF4,1.9189
mp-863885,LiFe(SiO3)2,3.2301
mp-863887,LiFeSiO4,2.5142
mp-863896,Li3Mn(PO4)2,1.2099000000000002
mp-8644,BaF2,5.9306
mp-865153,LiCoPO4,2.7351
mp-865750,Li2TeO3,3.3528
mp-866684,RbTh3F13,5.8107000000000015
mp-9756,ThGeO4,4.0145
mp-975622,Rb2Al2Si3O10,4.6713000000000005
mp-976307,K4Ba(SiO3)3,4.3719
mp-9764,Rb2NbAgSe4,1.8007
mp-9765,Nd2Pt2O7,1.0872000000000002
mp-977013,H6PbCI3N,1.6778
mp-989520,Rb2NaBiCl6,3.7342
mp-989523,Rb2NaAsF6,4.5471
mp-989528,Rb2AlInH6,0.1400999999999999
mp-989532,Rb2TlInF6,3.6593
mp-989533,NaTl2InF6,4.2708
mp-989539,Rb2AlTlH6,0.7178
mp-989541,Rb2NaSbF6,4.1248999999999985
mp-989545,Rb2NaSbCl6,3.0525
mp-989547,Rb2NaInCl6,3.0533
mp-989548,Rb2NaTlF6,3.6388
mp-989550,Rb2TlInCl6,2.3962
mp-989552,LaMoN3,1.1506000000000007
mp-989555,Tl2InGaF6,2.3621
mp-989561,NaTl2GaF6,4.3908
mp-989563,Rb2NaTlCl6,1.8121
mp-989566,Rb2InGaF6,3.2667
mp-989573,Rb2BrCl6F,0.9203
mp-989576,YWN3,1.5852000000000004
mp-989578,Rb2NaInF6,5.2687
mp-989579,Rb2LiTlCl6,1.5623
mp-989583,Rb2LiInCl6,2.8293
mp-989613,TiPN3,0.5305
mp-989614,LaReN3,1.3972999999999995
mp-989624,TiPN3,0.5396000000000001
mp-989627,SrTcN3,1.5709000000000002
mp-989632,LaOsN3,0.01839999999999975
mp-989633,LaWN3,2.3975
mp-989634,CaTcN3,1.4065
mp-989636,BaWN3,1.0862000000000005
mp-989646,LaWN3,1.7100999999999995
mvc-14630,ZnCoO2,1.1461
mvc-15907,WF5,1.9674
mvc-15941,YBiO3,2.3851000000000004
mvc-15985,Y2Ni2O7,0.6823000000000001
mvc-2118,WO2,2.2338000000000005
mvc-2938,CaNiF5,1.1432000000000002
mvc-2979,MnF4,0.20120000000000005
mvc-3081,ZnMoF5,3.222
mvc-3242,ZnSnF4,3.1888
mvc-3347,MgCrO2,1.0150000000000006
mvc-3384,MgTiF5,0.2946
mvc-3422,TiZnF5,0.21050000000000013
mvc-3488,TaF5,5.1436
mvc-3497,ZnNiF4,3.6226
mvc-3525,VZnF4,1.2474999999999998
mvc-3556,YFeO3,1.3836
mvc-3624,Y2W2O7,2.1357
mvc-3729,MgCoF5,1.9327
mvc-3734,ZnCrF5,3.0903
mvc-3736,MgVF5,2.4842
mvc-3737,MgMnF5,1.7288
mvc-3738,MgFeF5,3.7122
mvc-3741,ZnCoF5,1.6343
mvc-3742,VZnF5,2.428
mvc-3743,ZnFeF5,3.2673
mvc-3745,MnZnF5,1.3799
mvc-3747,ZnNiF5,1.6877
mvc-3813,CrF5,1.1119
mvc-3874,ZnBiO3,0.9831000000000004
mvc-3953,ZnSbO3,0.6336000000000004
mvc-3956,Zn2BiSbO6,1.3716
mvc-3959,Zn2AgSbO6,0.07520000000000016
mvc-3964,Zn2CuSbO6,0.021800000000000264
mvc-3968,TaZn2SbO6,1.5274
mvc-3997,Zn2Co2O5,0.5114000000000001
mvc-4105,Ca2CrSbO6,1.6251999999999995
mvc-4117,Ca2FeSbO6,1.7496
mvc-4137,Zn2SbWO6,1.0426000000000002
mvc-4138,Ca2SbWO6,0.8145999999999995
mvc-4172,TaZn2BiO6,2.2341
mvc-4179,TaZn2AgO6,0.2766000000000002
mvc-4245,SbO2,0.03690000000000016
mvc-4255,TaZn2CuO6,0.08369999999999989
mvc-4368,TaZn2CoO6,1.6697000000000002
mvc-4378,TaVZn2O6,1.5040000000000004
mvc-4379,TaMnZn2O6,0.6522999999999999
mvc-4381,TaZn2CrO6,2.5616000000000003
mvc-4382,Ca2TaCrO6,2.3044999999999995
mvc-4384,Mg2TaWO6,1.8046999999999995
mvc-4385,TaZn2MoO6,2.0836
mvc-4396,TaZn2FeO6,2.217
mvc-4398,Ca2TaWO6,1.2885
mvc-4407,TaZn2WO6,1.7113999999999994
mvc-4425,MgSn2O5,1.0610999999999997
mvc-4601,YMn2O4,0.2231999999999994
mvc-4606,YV2O4,0.5403000000000002
mvc-4608,YCr2O4,0.1473
mvc-4616,TiZnO2,0.035200000000000564
mvc-4732,MgCuO2,0.3741000000000003
mvc-4867,CaCuO2,0.3855999999999997
mvc-4875,MnZnO2,0.12300000000000022
mvc-4902,MgNiO2,1.942
mvc-4926,MgCu(SiO3)2,0.08089999999999975
mvc-4931,CaSi2SnO6,2.9822
mvc-4949,ZnFeO2,0.8809999999999999
mvc-4981,Mg2CrWO6,1.8806000000000005
mvc-4982,Mg2TaWO6,2.5277000000000003
mvc-4983,Mg2MoWO6,2.4005
mvc-4985,ZnCu(SiO3)2,0.15490000000000004
mvc-4996,Mg2TiWO6,1.7011000000000005
mvc-5003,Zn2SbWO6,1.5862999999999996
mvc-5006,Ca2SnWO6,1.6470000000000002
mvc-5015,Mg2SnWO6,1.8133
mvc-5017,TiZn2WO6,1.6179
mvc-5019,Mg2CoWO6,2.4956
mvc-5021,Zn2NiWO6,2.9140999999999995
mvc-5029,Zn3Co2(Si2O7)2,0.7730000000000001
mvc-5032,MgCr2O4,0.8556999999999997
mvc-5033,MoWO6,1.0802
mvc-5035,Zn2TeWO6,0.6010999999999997
mvc-5037,Zn2CuWO6,0.3713000000000002
mvc-5039,Zn2BiWO6,1.8279999999999996
mvc-5040,MnZn2WO6,2.135
mvc-5043,Zn2CoWO6,2.4596
mvc-5045,VZn2WO6,1.6694999999999998
mvc-5047,Zn2SnWO6,1.7655999999999996
mvc-5048,TaZn2WO6,1.6383999999999994
mvc-5049,Mg2VWO6,1.4568000000000003
mvc-5051,Mg2FeWO6,2.5219
mvc-5052,Zn2MoWO6,2.3471
mvc-5060,Ca2TeWO6,0.4415000000000005
mp-6384,RbSO2F,4.0947
mp-639278,BaZn(SeO3)2,4.0713
mp-6394,RbTiAsO5,3.056
mp-639695,SiO2,5.6061999999999985
mp-639724,SiO2,5.6711
mp-642228,MgSiO3,3.1689000000000003
mp-643056,MnBiO3,0.7650999999999994
mp-643105,Ba3NaBiO6,0.32410000000000005
mp-6455,NaNd(SO4)2,5.5386
mp-646129,RbEuAsS3,0.3754
mp-646579,V2Ni(PO5)2,2.479
mp-647075,ZnS,1.9999
mp-655834,MnSbSe2Br,0.1429999999999998
mp-676815,OsClF8,0.4761
mp-676818,Sr8(TiS3)7,0.015399999999999638
mp-676937,Ta8Pb6O25,0.3283000000000005
mp-677041,ZrCuF3,0.4628000000000001
mp-677509,K4N2O5,0.3607
mp-680308,Re(Se2Cl3)2,0.1583
mp-683773,NaCoPO4,3.0682
mp-685109,Yb5S9,1.6761000000000004
mp-706625,TeH5O6,0.4995
mp-706679,NaH2SO4,0.9236
mp-706986,PH4NO3,5.208500000000001
mp-707071,ZnH10C4N6(ClO2)2,4.5308
mp-707095,YHSO5,5.4776
mp-707483,TiP2H4O9,2.9716
mp-707491,Re6H12Pb3C2S2(N2O13)2,2.3448
mp-707811,ZrH6NOF5,5.7752
mp-762388,Li2(NiO2)3,0.3176000000000001
mp-762389,Ti3V2Fe(PO4)6,0.7374
mp-762390,LiV5O10,1.2626000000000004
mp-762394,Li3Co2(CO3)4,0.9728
mp-762416,Li13Mn8O24,0.0026000000000001573
mp-762417,Li5Mn5O12,0.4550000000000001
mp-762420,Li5Mn5O12,0.1452
mp-762424,LiNi(CO3)2,0.1916
mp-762425,Li3Ni2(CO3)4,0.6515
mp-762429,LiV2(CO3)4,0.5413000000000001
mp-762430,LiCrSiO4,2.5729999999999995
mp-762457,LiFePO4,3.5929
mp-762459,LiMn2O4,0.5052000000000003
mp-762468,LiFeP2O7,2.1889
mp-762469,LiFe(PO3)4,2.6502
mp-762475,LiMn3Al2(HO2)6,0.1649999999999996
mp-762476,LiMn3Al2(HO2)6,0.2645999999999997
mp-762477,LiMn3Al2(HO2)6,0.8297999999999999
mp-762478,LiMn3Al2(HO2)6,0.7926000000000002
mp-762483,LiFe(PO3)4,2.2278
mp-762485,Li2FeP2O7,4.0613
mp-762486,LiFe(PO3)3,3.6638
mp-762487,LiFeP2O7,2.2834
mp-762490,LiFeP2O7,2.5752
mp-762491,LiFe(PO3)3,3.9808
mp-762492,Li2Fe(PO3)4,4.0099
mp-762495,LiFe(PO3)4,2.345
mp-762505,Ti3Co3(SbO8)2,0.10679999999999977
mp-762514,LiMn3O6,0.4377
mp-762521,LiMn3Al2(HO2)6,0.2887
mp-762522,LiFe(PO3)4,2.1852
mp-762524,Li4Fe7(PO4)6,2.9982
mp-762526,LiMn3Al2(HO2)6,0.17079999999999984
mp-762533,Li2Fe2(SiO3)3,2.7423
mp-762547,LiFe4(PO4)3,3.222
mp-762574,Li3Mn3(PO4)4,0.5603999999999998
mp-762593,LiFePO4,3.6497
mp-762620,Li2Fe(Si2O5)2,3.2158
mp-762660,Li2(NiO2)3,0.2750999999999997
mp-762788,LiMnP2O7,0.9768
mp-762789,LiMnP2O7,0.8826
mp-764108,Mn6O5F7,0.21130000000000004
mp-764128,Na3Fe2(PO4)3,2.1844
mp-764131,Na3V2(PO4)3,1.9299
mp-764132,Na3Fe2(PO4)3,2.1790000000000003
mp-764135,Li2VP2O7,2.9218999999999995
mp-770312,Li24Mn7Cr5O36,1.127
mp-770313,Li24Mn5Cr7O36,1.0371
mp-770338,Li2MnPCO7,0.4843
mp-770363,Li24Mn5Cr7O36,1.0885
mp-770366,Li24Mn7Cr5O36,1.119
mp-770446,Mg3(AsO4)2,3.2227
mp-770454,La2Ti3O9,2.715
mp-770535,Mn2P4O13,0.8516
mp-770556,Li3MnO3,0.7440999999999998
mp-770780,MnP2O7,0.5998000000000001
mp-771045,La2SiO5,4.0614
mp-771449,Mn2PO5,0.2925
mp-771467,Na3Li3Mn2P2(CO7)2,3.5219
mp-771470,Ni(TeO3)4,0.24929999999999986
mp-771486,Li5FeO4,2.9148
mp-771487,Na5Mn2P(CO4)4,0.0059000000000000155
mp-771493,NaLi2MnPCO7,3.4761
mp-771546,Mn(IO3)2,2.6778
mp-771958,Ba3LaCl9,4.3826
mp-771963,Ba2LaCl7,3.6471
mp-771967,BaLaCl5,3.4009
mp-772022,Sr2LaI7,2.6012