task_id,composition,band_gap
mp-1211488,KYb(MoO4)2,0.0
mp-558435,KYb2F7,0.0
mp-1185082,KYb3,0.0
mp-616260,KYb3F10,0.0
mp-1206117,KYb3O6,0.0
mp-755010,KYbO2,0.0
mp-1184953,KYbO3,0.0
mp-722346,KYbP4(H4O9)2,0.0
mp-15787,KYbS2,0.0
mp-10989,KYbSe2,0.0
mp-12376,KYbSiS4,0.0
mp-784,KZn13,0.0
mp-1184946,KZnO3,0.0
mp-773901,KZnP2O7,0.0
mp-541282,KZr2(AsO4)3,3.996
mp-631345,KZr2Nb,0.0
mp-1211572,KZr6CI14,0.0
mp-1204211,KZrN3O11,0.0
mp-1184950,KZrO3,0.0
mp-1002123,KZrS2,0.0
mp-1207066,La(AgGe)2,0.0
mp-1200867,La(Al10Cr)2,0.0
mp-1195666,La(Al10V)2,0.0
mp-977054,La(Al2Fe)4,0.0
mp-1223260,La(Al5Cu)2,0.0
mp-1211263,La(Al5Fe)2,0.0
mp-1211269,La(Al5Ru)2,0.0
mp-569696,La(AlGa)2,0.0
mp-10580,La(AlGe)2,0.0
mp-1079764,La(AlPd)2,0.0
mp-1206998,La(AlSi)2,0.0
mp-569713,La(AlZn)2,0.0
mp-1105556,La(As3Os)4,0.0
mp-1078889,La(AsIr)2,0.0
mp-571434,La(AsPd)2,0.0
mp-1079347,La(AsRh)2,0.0
mp-569188,La(AsRu)2,0.0
mp-10852,La(BC)2,0.0
mp-9596,La(BIr)4,0.0
mp-1095136,La(BOs)2,0.0
mp-7347,La(BRu)4,0.0
mp-753380,La(BiO2)2,0.0
mp-1204376,La(Cd10Ni)2,0.0
mp-1223276,La(CeB8)3,0.0
mp-1106274,La(Co2B)6,0.0
mp-569674,La(CoAs)2,0.0
mp-2967,La(CoB)2,0.0
mp-1189727,La(CoB)4,0.0
mp-19939,La(CoGe)2,0.0
mp-4402,La(CoP)2,0.0
mp-1223596,La(CoP3)20,0.0
mp-5526,La(CoSi)2,0.0
mp-1211723,La(Cu2P)2,0.0
mp-20322,La(CuGe)2,0.0
mp-9416,La(CuO2)2,0.0
mp-3995,La(CuSi)2,0.0
mp-636264,La(CuSn)2,0.0
mp-1223286,La(ErSe2)2,0.0
mp-22470,La(FeAs3)4,0.0
mp-20527,La(FeGe)2,0.0
mp-6956,La(FeP)2,0.0
mp-582295,La(FeP3)4,0.0
mp-4088,La(FeSi)2,0.0
mp-1204258,La(Ga5Mo)8,0.0
mp-1092301,La(GaPd)2,0.0
mp-1095552,La(Ge2Rh3)2,0.0
mp-1188305,La(Ge3Pt)4,0.0
mp-1095046,La(GeIr)2,0.0
mp-21033,La(GePd)2,0.0
mp-606511,La(GePt)2,0.0
mp-4562,La(GeRh)2,0.0
mp-19900,La(GeRu)2,0.0
mp-1223298,La(Ho2C5)2,0.0
mp-21523,La(In2Au)2,0.0
mp-607848,La(In2Ni)3,0.0
mp-1211236,La(Mg2Al)4,0.0
mp-972924,La(Mg4Al3)4,0.0
mp-1206521,La(MgSi)2,0.0
mp-22760,La(MnGe)2,0.0
mp-5069,La(MnSi)2,0.0
mp-1103974,La(Mo3S4)2,0.0
mp-676259,La(Mo3Se4)2,0.0
mp-1181009,La(NO5)3,0.19530000000000008
mp-14325,La(Ni2B)6,0.0
mp-20044,La(NiAs)2,0.0
mp-19979,La(NiGe)2,0.0
mp-8250,La(NiP)2,0.0
mp-1078717,La(NiSn)2,0.0
mp-1021506,La(P3Os)4,0.0
mp-15727,La(P3Ru)4,0.0
mp-1207202,La(PPd)2,0.0
mp-1080183,La(PRh)2,0.0
mp-9886,La(PRu)2,0.0
mp-9210,La(PdO2)2,0.0
mp-1106361,La(ReB)4,0.0
mp-612861,La(ReSi)2,0.0
mp-1106066,La(Sb3Os)4,0.0
mp-1188603,La(Sb3Ru)4,0.0
mp-1079540,La(SbPd)2,0.0
mp-1211372,La(SeO4)3,0.0
mp-16237,La(SiAg)2,0.0
mp-11859,La(SiAu)2,0.0
mp-3585,La(SiIr)2,0.0
mp-5898,La(SiNi)2,0.0
mp-567203,La(SiOs)2,0.0
mp-4954,La(SiPd)2,0.0
mp-1080606,La(SiPt)2,0.0
mp-5936,La(SiRh)2,0.0
mp-5105,La(SiRu)2,0.0
mp-1223255,La(SmB8)3,0.0
mp-1193123,La(Sn2Rh)2,0.0
mp-1200087,La(TiAl10)2,0.0
mp-690513,La(WO3)11,0.0
mp-1223273,La(YC3)2,0.0
mp-570357,La10(B3C4)3,0.0
mp-669516,La10(ErS3)9,0.0
mp-569477,La10Al5Br4,0.0
mp-1211500,La10Al5I8,0.0
mp-567775,La10C4I15,0.0
mp-1226984,La10Ga3Co7,0.0
mp-680502,La10Ga5Br4,0.0
mp-680469,La10Ga5Cl4,0.0
mp-695030,La10Mg(Ga3O10)3,0.0
mp-541553,La10Os2I15,0.0
mp-675741,La10US16,0.0
mp-627405,La11(Ni2Ge3)2,0.0
mp-571523,La11C11Cl7,0.0
mp-974045,La11In9Ni4,0.0
mp-1181275,La11Sn10,0.0
mp-1212153,La12(ReC3)5,0.0
mp-674940,La12Au3I13,0.0
mp-571323,La12C6I17,0.0
mp-675164,La12Cu10O31,0.0
mp-757399,La12Cu6O25,0.0
mp-1227608,La12Fe11S30,0.0
mp-570039,La12Fe2I17,0.0
mp-1224232,La12Ga23MoO56,0.0
mp-1223721,La12Ga23WO56,0.0
mp-1224120,La12Mn3(AlSe7)4,0.0
mp-1211984,La12Ni6Pb,0.0
mp-1196229,La13(B2O13)2,0.0
mp-1212074,La13Al12Si18(N2O)18,0.0
mp-581920,La13Cd58,0.0
mp-1223670,La14Au51,0.0
mp-570240,La14C14Cl9,0.0
mp-868382,La14Mn13O42,0.0
mp-698613,La14Mn16O45,0.0
mp-1200169,La14Sb8CO7,0.0
mp-1224593,La14Zn45Si,0.0
mp-1178158,La15(NiO4)8,0.0
mp-679949,La15B14C19,0.0
mp-1203560,La15Cd2Rh5,0.0
mp-1213468,La15CuGe9,0.0
mp-1201203,La15FeGe9,0.0
mp-1212654,La15Ge9O,0.0
mp-1212852,La15Ge9P,0.0
mp-1213532,La15Ge9Ru,0.0
mp-773935,La15Mn16O48,0.0
mp-568683,La16Al13,0.0
mp-868300,La16Ni8O33,0.0
mp-705870,La17Mn17O54,0.0
mp-1202244,La18In3Co28,0.0
mp-705671,La19Mn19O60,0.0
mp-1211311,La2(Al3Ir)3,0.0
mp-1211312,La2(Al3Rh)3,0.0
mp-753524,La2(BiO2)7,0.0
mp-1223263,La2(CoNi)5,0.0
mp-1223292,La2(CuNi)5,0.0
mp-1223328,La2(ErGe)3,0.0
mp-1211948,La2(Ga3Ru)3,0.0
mp-1223634,La2(GaNi)5,0.0
mp-1224933,La2(InCu3)3,0.0
mp-1225978,La2(InSn)3,0.0
mp-1223267,La2(MgAg3)3,0.0
mp-1212750,La2(N4O9)3,0.0
mp-1223681,La2(Ni2B)3,0.0
mp-1206159,La2(PRh)3,0.0
mp-1223431,La2(SnPb)3,0.0
mp-1223251,La2(TlPb)3,0.0
mp-1223249,La2(TlSn)3,0.0
mp-705750,La2(WO3)19,0.0
mp-20624,La2(Zn2Ge)3,0.0
mp-639526,La2(ZnGe2)3,0.0
mp-1224621,La20Al3Si9O52,0.0
mp-571437,La20C20Cl13,0.0
mp-1223565,La20Mn8Te7C12,0.0
mp-1223651,La20Os12C13,0.0
mp-647363,La21Fe8Bi7C12,0.0
mp-582023,La21Fe8Sb7C12,0.0
mp-607917,La21Fe8Sn7C12,0.0
mp-1200955,La21Mn8Bi7C12,0.0
mp-1203312,La21Mn8Sb7C12,0.0
mp-1201735,La21Mn8Sn7C12,0.0
mp-1212154,La23Cd4Ir7,0.0
mp-567446,La23Cd4Pt7,0.0
mp-1212070,La23Cd4Rh7,0.0
mp-1211976,La23Mg4Ir7,0.0
mp-581781,La23Mg4Ni7,0.0
mp-1212033,La23Mg4Pt7,0.0
mp-570297,La23Mg4Rh7,0.0
mp-1178168,La24Ni12O49,0.0
mp-1076119,La2Ag2O5,0.0
mp-1097188,La2AgAu,0.0
mp-1185100,La2AgHg,0.0
mp-862293,La2AgIr,0.0
mp-1120758,La2AgO4,0.0
mp-1095967,La2AgOs,0.0
mp-1096314,La2AgPb,0.0
mp-867798,La2AgRu,0.0
mp-1211374,La2AgS2O,0.0
mp-867801,La2AgSn,0.0
mp-1191246,La2Al(Ni3H4)3,0.0
mp-1079988,La2Al2Ge,0.0
mp-29986,La2Al2I,0.0
mp-1223301,La2Al3Cu7,0.0
mp-1223371,La2Al3GaPd4,0.0
mp-1223244,La2Al3Ge,0.0
mp-669456,La2Al3Ge4,0.0
mp-1223225,La2Al3Sn,0.0
mp-1225915,La2Al6CuAu,0.0
mp-1223239,La2Al7Cu,0.0
mp-1223252,La2AlGe,0.0
mp-1223261,La2AlGe3,0.0
mp-1096316,La2AlIn,0.0
mp-568040,La2AlNi9,0.0
mp-567838,La2AlNi9H,0.0
mp-568788,La2AlNi9H2,0.0
mp-1223230,La2AlZn,0.0
mp-1206607,La2AsI2,0.0
mp-1103395,La2Au,0.0
mp-1232326,La2AuO4,0.0
mp-568985,La2B3Br,0.0
mp-569121,La2B3Cl,0.0
mp-1097551,La2BeGe,0.0
mp-1077063,La2Bi,0.0
mp-770462,La2Bi2O7,0.0
mp-1223274,La2Bi2S4OF,0.0
mp-1078349,La2BiN,0.0
mp-1070601,La2BiO2,0.0
mp-1184,La2C3,0.0
mp-29404,La2CCl,0.0
mp-30489,La2Cd17,0.0
mp-1097134,La2CdAg,0.0
mp-1207248,La2CdAu2,0.0
mp-1185143,La2CdHg,0.0
mp-1185193,La2CdIn,0.0
mp-1207146,La2CdNi2,0.0
mp-1096266,La2CdPb,0.0
mp-1206250,La2CdPd2,0.0
mp-13429,La2CdRh2,0.0
mp-1223418,La2CeS4,0.0
mp-1226163,La2CeTe4,0.0
mp-1197631,La2Co14B,0.0
mp-1205615,La2Co2I,0.0
mp-569054,La2Co3,0.0
mp-18862,La2CoIrO6,0.0
mp-1211319,La2CoRuO6,0.0
mp-1223367,La2CoSb4,0.0
mp-1223336,La2CoSi3,0.0
mp-1097715,La2Cr2O5,0.0
mp-1147760,La2Cu(NF)2,0.0
mp-1207003,La2Cu2I,0.0
mp-1147637,La2Cu2O5,0.0
mp-1223291,La2Cu3Ni,0.0
mp-1096524,La2CuGe,0.0
mp-1095038,La2CuGe6,0.0
mp-862536,La2CuIr,0.0
mp-1211597,La2CuIrO6,0.0
mp-1096070,La2CuOs,0.0
mp-1223365,La2CuRhO6,0.0
mp-862331,La2CuRu,0.0
mp-1213297,La2CuS2O,0.0
mp-1211335,La2CuSe2O,0.0
mp-1223228,La2CuSi3,0.0
mp-14735,La2CuSnO6,0.0
mp-1211660,La2CuTe2O,0.0
mp-1223340,La2CuTe4,0.0
mp-1198085,La2Fe14B,0.0
mp-1211279,La2Fe2S2O3,0.0
mp-2995,La2Fe2S5,0.0
mp-1025290,La2Fe2Si2C,0.0
mp-1223457,La2Fe4Sb5,0.0
mp-1223264,La2FeAs2RuO2,0.0
mp-1223373,La2FeCoO6,0.0
mp-1223335,La2FeNiO6,0.0
mp-1223271,La2FeSi3,0.0
mp-1223275,La2FeSn4,0.0
mp-1104497,La2Ga10Ni,0.0
mp-604613,La2Ga12Ni,0.0
mp-638226,La2Ga12Pd,0.0
mp-1223453,La2Ga5Au3,0.0
mp-1223339,La2Ga5Cu3,0.0
mp-1223761,La2Ga7Au,0.0
mp-1223437,La2Ga7Co,0.0
mp-1185602,La2GaAg,0.0
mp-1223269,La2GaCoO6,0.0
mp-1093608,La2GaCu,0.0
mp-1093838,La2GaIr,0.0
mp-1223246,La2GaNiO6,0.0
mp-1223521,La2Ge4IrPd3,0.0
mp-1223229,La2Ge4IrRh3,0.0
mp-1223497,La2Ge4Pd3Pt,0.0
mp-621852,La2Ge5Ru3,0.0
mp-570597,La2GeI2,0.3670000000000001
mp-638261,La2GeO5,4.015499999999999
mp-1104116,La2H5,0.0
mp-1093587,La2HgAu,0.0
mp-1093835,La2HgPb,0.0
mp-1096129,La2HgRu,0.0
mp-1211271,La2I2O,0.0
mp-1226684,La2In11Ni15,0.0
mp-1185195,La2InAg,0.0
mp-574369,La2InCu2,0.0
mp-1097374,La2InGa,0.0
mp-21288,La2InGe2,0.0
mp-1106017,La2InNi2,0.0
mp-20907,La2InRh2,0.0
mp-1105259,La2InSi2,0.0
mp-1195853,La2Ir7,0.0
mp-972960,La2IrAu,0.0
mp-861916,La2IrPd,0.0
mp-1097666,La2IrPt,0.0
mp-1096140,La2IrRu,0.0
mp-1094177,La2Mg,0.0
mp-30752,La2Mg17,0.0
mp-1185014,La2MgAl,0.0
mp-1223215,La2MgAl3,0.0
mvc-14551,La2MgBiO6,0.0
mp-1185062,La2MgCd,0.0
mp-11086,La2MgCu2,0.0
mp-1098699,La2MgHg,0.0
mp-1093987,La2MgIn,0.0
mp-6732,La2MgIrO6,0.0
mp-4952,La2MgNi2,0.0
mp-10320,La2MgRhO6,0.0
mvc-13246,La2MgSbO6,0.0
mp-1205762,La2MgSi2,0.0
mp-977187,La2MgTl,0.0
mvc-15459,La2MgWO6,0.0
mp-1093885,La2MgZn,0.0
mp-1223491,La2Mn17C2,0.0
mp-1192050,La2Mn3Cu9As7,0.0
mp-1191431,La2Mn3Cu9P7,0.0
mp-1223801,La2Mn3CuGe4,0.0
mp-1223242,La2Mn3FeSi4,0.0
mp-690564,La2Mn3PbO9,0.0
mp-1223644,La2Mn3ZnO9,0.0
mp-1206579,La2MnP2O,0.0
mp-1223416,La2MnPbO9,0.0
mp-1223237,La2MnSb4,0.0
mp-1147590,La2Nb4Cu(ClO7)2,0.0
mp-1223155,La2NbCrO6,0.0
mp-1223164,La2Nd(MnSi)6,0.0
mp-28821,La2Ni12P5,0.0
mp-573282,La2Ni22C3,0.0
mp-1206895,La2Ni2I,0.0
mp-1691,La2Ni3,0.0
mp-1223467,La2Ni4Ge3P,0.0
mp-1223427,La2Ni4GeP3,0.0
mp-615459,La2Ni5C3,0.0
mp-1679,La2Ni7,0.0
mp-1093985,La2NiIr,0.0
mp-25104,La2NiIrO6,0.0
mp-1206064,La2NiMoO6,0.0
mp-1223202,La2NiPt,0.0
mp-1223214,La2NiRhO6,0.0
mp-19176,La2NiRuO6,0.0
mp-1223308,La2NiSn4,0.0
mp-1205988,La2NiWO6,0.0
mp-1205536,La2Os2I,0.0
mp-570988,La2PBr2,0.0
mp-1147572,La2Pd(OF)2,0.0
mp-20301,La2Pd2Pb,0.0
mp-973099,La2PdRu,0.0
mp-1025245,La2Re2Si2C,0.0
mp-27894,La2Re3B7,0.0
mp-1206875,La2Rh2I,0.0
mp-1205711,La2Ru2I,0.0
mp-1185018,La2RuAu,0.0
mp-5299,La2RuO5,0.0
mp-1207269,La2S2F,0.0
mp-759,La2Sb,0.0
mp-1198252,La2Sb4Ir3,0.0
mp-1223122,La2SbAu3,0.0
mp-1211238,La2SbI2,0.0
mp-1223121,La2SbO2,0.0
mp-1205647,La2ScSi2,0.0
mp-1185023,La2Si2O5,0.0
mp-5732,La2Si2O7,4.781899999999999
mp-1223125,La2Si3,0.0
mp-1223258,La2Si3Ni,0.0
mp-1191810,La2Si3Rh,0.0
mp-1204122,La2SiC(NO2)2,3.720999999999999
mp-37386,La2SmS4,0.0
mp-1211329,La2Sn3,0.0
mp-1105069,La2Sn5,0.0
mp-1185178,La2SnHg,0.0
mp-12170,La2SnS5,0.0
mp-675535,La2SnSb4,0.0
mp-755226,La2Tb2O7,0.0
mp-1087477,La2TcNiO6,0.0
mp-1104212,La2Te5,0.0
mp-543029,La2TeI2,0.0
mp-1227821,La2TeMo6O35,0.17300000000000001
mp-766253,La2Th11O26,0.0
mp-1097763,La2Ti2O5,0.0
mp-1223080,La2Ti3AgO9,0.0
mp-1223091,La2Ti3CoO10,0.0
mp-1223106,La2Ti3VO10,0.0
mp-1223096,La2TiCo16,0.0
mp-1225793,La2TiCrO6,0.0
mp-1223189,La2TiCuO6,0.0
mp-1185050,La2TlAg,0.0
mp-867880,La2TlCd,0.0
mp-973572,La2TlHg,0.0
mp-1185194,La2TlIn,0.0
mp-973564,La2TlZn,0.0
mp-1194475,La2U2Se9,0.0
mp-1223142,La2U3O11,0.0
mp-1223120,La2UAs3,0.0
mp-1199162,La2US5,0.0
mp-35651,La2USe4,0.0
mp-1201621,La2USe5,0.0
mp-33533,La2UTe4,0.0
mp-1223195,La2UTe5,0.0
mp-1223090,La2VCo16,0.0
mp-1223086,La2YC6,0.0
mp-30709,La2Zn17,0.0
mp-1205365,La2Zn5Sn,0.0
mp-973957,La2ZnAg,0.0
mp-1223054,La2ZnAs4,0.0
mp-1223052,La2ZnBi4,0.0
mvc-13620,La2ZnBiO6,0.0
mp-1097394,La2ZnCd,0.0
mvc-14594,La2ZnCoO6,1.1209000000000011
mvc-13687,La2ZnCrO6,0.0
mp-1093834,La2ZnCu,0.0
mvc-13418,La2ZnFeO6,0.0
mp-973847,La2ZnGa,0.0
mp-1185102,La2ZnHg,0.0
mp-1096229,La2ZnIn,0.0
mp-867124,La2ZnIr,0.0
mp-6152,La2ZnIrO6,0.0
mvc-11208,La2ZnMoO6,0.0
mp-13532,La2ZnNi2,0.0
mp-10321,La2ZnRhO6,0.0
mp-867847,La2ZnRu,0.0
mp-1223048,La2ZnSb4,0.0
mvc-13571,La2ZnSbO6,0.0
mvc-15420,La2ZnWO6,0.0
mp-1211456,La2ZrCuO6,0.0
mp-1079926,La2ZrNiO6,1.8863
mp-1205490,La3(AgSn)4,0.0
mp-1211155,La3(Al2Si3)2,0.0
mp-29987,La3(AlI)2,0.0
mp-4676,La3(B3Ru4)2,0.0
mp-569935,La3(BN2)2,0.0
mp-569565,La3(CrN3)2,0.0
mp-21529,La3(GaNi)2,0.0
mp-573548,La3(GaNi2)2,0.0
mp-1211591,La3(GaRh)2,0.0
mp-10558,La3(NbN3)2,0.0
mp-561716,La3(NiO3)2,0.0
mp-27330,La3(OsO5)2,0.0
mp-1211429,La3(P3Pd10)2,0.0
mp-29326,La3(ReO5)2,0.0
mp-568370,La3(SiNi)4,0.0
mp-568625,La3(SiPd)4,0.0
mp-31295,La3(Sn3Pd2)2,0.0
mp-29964,La3(TaN3)2,0.0
mp-31054,La3(VN3)2,0.0
mp-1101768,La3(ZnPd)4,0.0
mp-1102613,La3(ZnPt)4,0.0
mp-684726,La39Se56,0.0
mp-978254,La3Ag,0.0
mp-1084828,La3Al,0.0
mp-16505,La3Al11,0.0
mp-10600,La3AlC,0.0
mp-1191125,La3AlCoS7,0.0
mp-861904,La3AlCrS7,0.0
mp-1206996,La3AlO,0.0
mp-867967,La3AlVS7,0.0
mp-1211477,La3AsBr3,0.0
mp-29997,La3AsI3,0.0
mp-1211485,La3AuI3,0.0
mp-569072,La3B(CBr)2,0.0
mp-571135,La3BCCl3,0.0
mp-1189173,La3Bi4Pt3,0.0
mp-1184995,La3Cd,0.0
mp-1223213,La3Cd(FeO3)4,0.0
mp-1185154,La3Ce,0.0
mp-756286,La3Ce4O12,0.0
mp-640095,La3Co,0.0
mp-6084,La3Co29(Si2B5)2,0.0
mp-1192173,La3Co2S7,0.0
mp-11356,La3Co2Sn7,0.0
mp-541599,La3Co3O8,0.0
mp-672373,La3Co4Sn13,0.0
mp-1211587,La3CoSiS7,0.0
mp-1211918,La3Cu2S7,0.0
mp-6309,La3Cu4(P2O)2,0.0
mp-972908,La3Dy,0.0
mp-1223073,La3DyC8,0.0
mp-972912,La3Er,0.0
mp-1185264,La3Eu,0.0
mp-675895,La3Fe2S7,0.0
mp-1223177,La3Fe4AgO12,0.0
mp-1190713,La3FeCoS7,0.0
mp-1191594,La3FeNiS7,0.0
mp-1211336,La3FeSiS7,0.0
mp-20487,La3Ga,0.0
mp-631194,La3Ga4Cl,0.0
mp-780561,La3Ga5O12,2.869
mp-30207,La3GaBr3,0.0
mp-1191572,La3GaCoS7,0.0
mp-1223193,La3GaCuSe7,0.0
mp-582828,La3Ge3Cl2,0.0
mp-1211671,La3Ge5,0.0
mp-1224919,La3Ge6(Pd2Pt)2,0.0
mp-973024,La3Hf,0.0
mp-9436,La3HfSb5,0.0
mp-1185066,La3Hg,0.0
mp-1185606,La3Ho,0.0
mp-20909,La3In,0.0
mp-1189294,La3In4Ge,0.0
mp-20590,La3InB,0.0
mp-29056,La3InC,0.0
mp-1192284,La3InCoS7,0.0
mp-1224015,La3InGe,0.0
mp-20999,La3InN,0.0
mp-1188506,La3Ir,0.0
mp-1104303,La3Ir2,0.0
mp-9612,La3Ir3O11,0.0
mp-1192721,La3IrBr3,0.0
mp-1211508,La3IrI3,0.0
mp-1191066,La3IrO7,0.0
mp-1185170,La3Lu,0.0
mp-1094171,La3Mg,0.0
mp-1223130,La3Mg2(WO6)2,0.0
mp-1223326,La3Mg2TaO9,3.652799999999999
mp-568964,La3MgBi5,0.0
mp-761423,La3Mn3O10,0.0
mp-1223238,La3Mn4AgO12,0.0
mp-1178204,La3MnO7,0.0
mp-1188428,La3MnS5,0.0
mp-866746,La3MnW(SO2)3,0.0
mp-1185117,La3Nb,0.0
mp-1211272,La3Nb(ClO2)3,0.0
mp-850556,La3Nb8O24,0.0
mp-1211276,La3NbGa5O14,0.0
mp-1211294,La3NbSb5,0.0
mp-1185150,La3Nd,0.0
mp-1223089,La3Nd(CuO4)2,0.0
mp-1223083,La3Nd3Al22,0.0
mp-1189497,La3Ni,0.0
mp-6114,La3Ni2B2N3,0.0
mp-18926,La3Ni2O7,0.0
mp-13093,La3Ni2Sn7,0.0
mp-1211407,La3Ni3Bi4,0.0
mp-1210896,La3Ni4(P2O)2,0.0
mp-1224382,La3Ni7P5,0.0
mp-1193278,La3NiW(SO2)3,0.0
mp-1211014,La3OsI3,0.0
mp-1210981,La3PBr3,0.0
mp-29996,La3PI3,0.0
mp-867883,La3Pb,0.0
mp-10611,La3PbC,0.0
mp-31317,La3PbI3,0.0
mp-1104435,La3Pd4,0.0
mp-1185112,La3Pm,0.0
mp-1223190,La3Pr(CoP)8,0.0
mp-1223133,La3PrMn4O12,0.0
mp-1104753,La3Pt2,0.0
mp-1104856,La3Pt4,0.0
mp-1211495,La3PtI3,0.0
mp-1211321,La3Re(ClO2)3,0.0
mp-1104495,La3Rh2,0.0
mp-1203228,La3Rh4Pb13,0.0
mp-5032,La3Ru3O11,0.0
mp-1192912,La3RuBr3,0.0
mp-3222,La3RuO7,0.0
mp-567,La3S4,0.0
mp-29998,La3SbI3,0.0
mp-1185096,La3Sc,0.0
mp-1223059,La3ScAl8,0.0
mp-569411,La3ScBi5,0.0
mp-491,La3Se4,0.0
mp-10162,La3Si2,0.0
mp-601852,La3Si2Rh3,0.0
mp-29559,La3Si3Cl2,0.0
mp-1223188,La3Si3Ni,0.0
mp-1223126,La3Si7Ni3,0.0
mp-29995,La3SiBr3,0.0
mp-1211457,La3SiCl3,0.0
mp-1211402,La3SiI3,0.0
mp-1194197,La3SiN4F,2.0209
mp-571217,La3SiPd5,0.0
mp-1185147,La3Sm,0.0
mp-1076218,La3SmV2Cr2O12,0.0
mp-1681,La3Sn,0.0
mp-1197480,La3Sn13Ir4,0.0
mp-1196992,La3Sn13Ru4,0.0
mp-976378,La3Sn4,0.0
mp-1188370,La3Sn5,0.0
mp-1079273,La3Sn7,0.0
mp-1206443,La3SnC,0.0
mp-1206994,La3SnN,0.0
mp-1185109,La3Ta,0.0
mp-1194221,La3Ta(ClO2)3,0.0
mp-1211938,La3TaGa5O14,0.0
mp-1185152,La3Tb,0.0
mp-1185161,La3Ti,0.0
mp-754804,La3Ti4O12,0.0
mp-1191294,La3TiAlS7,0.0
mp-1191420,La3TiBeS7,0.0
mp-9333,La3TiSb5,0.0
mp-371,La3Tl,0.0
mp-7159,La3TlC,0.0
mp-1185160,La3Tm,0.0
mp-1223075,La3UAl8,0.0
mp-1223332,La3Y(MnSi)4,0.0
mp-1223197,La3YFe4(AsO)4,0.0
mp-1223124,La3YSb3,0.0
mp-1185118,La3Yb,0.0
mp-1211944,La3Yb2(GaO4)3,0.0
mp-1185085,La3Zn,0.0
mp-1200584,La3Zn22,0.0
mp-1223691,La3ZnCuRh2PbO12,0.0
mp-1185011,La3Zr,0.0
mp-1197619,La4(DyS2)11,0.0
mp-1199854,La4(ErS2)11,0.0
mp-1199201,La4(HoS2)11,0.0
mp-1204597,La4(TmS2)11,0.0
mp-1195795,La4(YS2)11,0.0
mp-780409,La4Al2O9,4.382099999999999
mp-1211475,La4Al51W7,0.0
mp-569398,La4Al5Br2,0.0
mp-568959,La4As3,0.0
mp-672196,La4B2CI5,0.0
mp-1205775,La4B2N5,0.0
mp-510357,La4B4Br5,0.0
mp-569894,La4B4Cl5,0.0
mp-1223076,La4B4I5,0.0
mp-1223111,La4Bi2Pb,0.0
mp-23187,La4Bi3,0.0
mp-1223105,La4Bi4S8O3F,0.0
mp-1223139,La4BiPb2,0.0
mp-569873,La4C2Br5,0.0
mp-569637,La4C2Cl5,0.0
mp-1223222,La4C2I5,0.0
mp-667192,La4C5Cl2,0.0
mp-581510,La4CdCo,0.0
mp-1211420,La4CdIr,0.0
mp-1211864,La4CdNi,0.0
mp-1211438,La4CdPd,0.0
mp-1211384,La4CdPt,0.0
mp-570820,La4CdRu,0.0
mp-1223114,La4CePd15,0.0
mp-1223236,La4CeZn5,0.0
mp-1206347,La4Co2Sn5,0.0
mp-1223183,La4Co3ReO12,0.0
mp-1223074,La4Cu3Sb8,0.0
mp-1147534,La4Cu3SeO12,0.0
mp-1147683,La4Cu3TeO12,0.0
mp-1223147,La4Cu5As8,0.0
mp-1223235,La4Cu5Sb8,0.0
mp-1223008,La4CuNiO8,0.0
mp-772213,La4CuO8,0.0
mp-1223002,La4DyC10,0.0
mp-1223109,La4Fe(CoO4)3,0.10449999999999984
mp-1223166,La4Fe(NiO4)3,0.0
mp-1223077,La4Fe(NiO5)2,0.0
mp-1223185,La4Fe3NiO12,0.0
mp-1223053,La4FeAs4Ru3O4,0.0
mp-689533,La4FeSe6O,0.0
mp-1225557,La4GaSi3,0.0
mp-1211987,La4GeO8,3.768700000000001
mp-1103808,La4H9,0.0
mp-1223003,La4HoC10,0.0
mp-1197789,La4In21Pd10,0.0
mp-1211837,La4Mg,0.0
mp-569582,La4MgCo,0.0
mp-570078,La4MgIr,0.0
mp-1211561,La4MgNi,0.0
mp-1211476,La4MgRh,0.0
mp-605878,La4MgRu,0.0
mp-1223277,La4Mn3Sb8,0.0
mp-743770,La4Mn5Co(PbO9)2,0.0
mp-1202546,La4Ni3O10,0.0
mp-566426,La4Ni3O8,0.0
mp-602393,La4Ni3Pb4,0.0
mp-1223411,La4Ni3Sn8,0.0
mp-541612,La4Os6O19,0.0
mp-1200868,La4P9Rh8,0.0
mp-1196615,La4PClO8,4.428999999999999
mp-571336,La4Pb3,0.0
mp-1223424,La4Pr(CoP)10,0.0
mp-1223186,La4Re(NiO4)3,0.0
mp-4802,La4Re6O19,0.0
mp-541611,La4Ru6O19,0.0
mp-1223154,La4S7,0.0
mp-1223115,La4Sb2Pb,0.0
mp-1223,La4Sb3,0.0
mp-1223110,La4SbTe7,0.0
mp-582175,La4Si4I3,0.0
mp-1206826,La4SiI5,0.0
mp-1076724,La4Sm4Co7AgO20,0.0
mp-1099698,La4Sm4Co7AgO24,0.0
mp-1076483,La4Sm4Co7CuO20,0.0
mp-1076219,La4Sm4Co7CuO24,0.0
mp-1076765,La4Sm4Ni7AgO20,0.0
mp-1223203,La4SmMn5O15,0.0
mp-1223150,La4SnBi2,0.0
mp-1223181,La4SnSb2,0.0
mp-1224958,La4TaCo33,0.0
mp-1223604,La4Ti5(S6O)2,0.0
mp-559176,La4Ti5(Si2O11)2,0.0
mp-562731,La4Ti9(Si2O15)2,0.0
mp-706223,La4TiMn5(PbO9)2,0.0
mp-1223098,La4YC10,0.0
mp-1223163,La4ZnCu(RhO6)2,0.0
mp-1223533,La4Zr8Ni15As16,0.0
mp-31252,La5(AlBr)4,0.0
mp-570499,La5(BN3)2,0.0
mp-569576,La5(SiN3)3,1.9652
mp-1198240,La5(Sn5Ir2)2,0.0
mp-1106117,La5AgPb3,0.0
mp-1225911,La5Al15Cu2Au3,0.0
mp-1223196,La5Al15Cu4Au,0.0
mp-569071,La5Al3Ni2,0.0
mp-1189350,La5AsPb3,0.0
mp-1211502,La5B3O13,0.0
mp-1223216,La5B4Rh15,0.0
mp-1105575,La5BPb3,0.0
mp-1105962,La5Bi3,0.0
mp-30212,La5Bi3Br,0.0
mp-1211797,La5CoGe3,0.0
mp-1188288,La5CrPb3,0.0
mp-15277,La5Cu19P12,0.0
mp-753437,La5Cu5O13,0.0
mp-1223375,La5Cu6S7O4,0.0
mp-1189076,La5CuBi3,0.0
mp-1211768,La5CuGe3,0.0
mp-1188578,La5CuPb3,0.0
mp-1223395,La5Dy3(CuO4)4,0.0
mp-1223287,La5Er5Ge6,0.0
mp-1223413,La5Fe4NiO15,0.0
mp-1211823,La5FeGe3,0.0
mp-1188583,La5FePb3,0.0
mp-743931,La5FeRe3O16,0.0
mp-672217,La5Ga3,0.0
mp-1224656,La5Ga4SnSb10,0.0
mp-1188469,La5Ge3,0.0
mp-1211687,La5Ge3O,0.0
mp-1192186,La5In11Ni6,0.0
mp-631961,La5In3Br,0.0
mp-1104396,La5Ir2,0.0
mp-1199235,La5Ir3,0.0
mp-1094178,La5Mg,0.0
mp-1211590,La5Mg41,0.0
mp-690531,La5Mn5O18,0.0
mp-705288,La5Mn7Co(PbO8)3,0.0
mp-644707,La5MnOs3O16,0.0
mp-1106340,La5MnPb3,0.0
mp-743906,La5MnRe3O16,0.0
mp-1211722,La5NiGe3,0.0
mp-542804,La5NiPb3,0.0
mp-1204383,La5P12Ir19,0.0
mp-1199456,La5P12Ru19,0.0
mp-1188357,La5PPb3,0.0
mp-1105896,La5Pb3,0.0
mp-1211573,La5Pb3C,0.0
mp-1211404,La5Pb3Cl,0.0
mp-31288,La5Pb3I,0.0
mp-1223153,La5Pb3O,0.0
mp-1188606,La5Pb3S,0.0
mp-1188274,La5Pb3Se,0.0
mp-744078,La5Re3NiO16,0.0
mp-1104417,La5Ru2,0.0
mp-1223399,La5S7,0.0
mp-32640,La5S8,0.0
mp-29684,La5Sb3Br,0.0
mp-1211529,La5SbPb3,0.0
mp-1224631,La5Se6N,1.5819999999999999
mp-10961,La5Si3,0.0
mp-1211451,La5Si3O13,0.0
mp-570723,La5Si5I3,0.0
mp-1076171,La5Sm3Co7CuO24,0.0
mp-1100028,La5Sm3Cr8O20,0.0
mp-1076656,La5Sm3Ni7AgO20,0.0
mp-1076249,La5Sm3Ni7AgO24,0.0
mp-1076766,La5Sm3VCr7O20,0.0
mp-510494,La5Sn3,0.0
mp-569350,La5Sn3Br,0.0
mp-1189433,La5Sn3C,0.0
mp-30210,La5Sn3Cl,0.0
mp-30211,La5Sn3I,0.0
mp-30757,La5Sn4,0.0
mp-757779,La5Ta22O62,0.0
mp-28801,La5Ti4O15,0.0
mp-558371,La5Ti5O17,0.0
mp-676443,La5YbS8,0.0
mp-1188901,La5ZnPb3,0.0
mp-1223390,La6Al3Fe11,0.0
mp-1211354,La6Al3Ni4SnRu,0.0
mp-1211503,La6Al4Fe9As,0.0
mp-1212040,La6Al4Fe9P,0.0
mp-1211603,La6Al5Fe9,0.0
mp-1211934,La6AlFe13,0.0
mp-1200065,La6Co13Bi,0.0
mp-1203722,La6Co13Sb,0.0
mp-1199127,La6Co13Sn,0.0
mp-1223289,La6Cr(GeS7)2,0.0
mp-1223175,La6Cr(SiS7)2,0.0
mp-772159,La6Cu6O17,0.0
mp-1223212,La6CuSb15,0.0
mp-1196549,La6Fe13Pb,0.0
mp-1223645,La6Ga3Co11,0.0
mp-647589,La6Ge11,0.0
mp-1203758,La6InCo13,0.0
mp-1223141,La6Mg(SiS7)2,1.9698