task_id,pretty_formula,band_gap
mp-24802,Sr2Al3Si3HO13,4.9047
mp-24809,CaH2,0.6534999999999997
mp-24810,NaBH4,6.2163
mp-24814,KBH4,1.4027
mp-24817,LiBeH3,4.8344000000000005
mp-24818,LiBeH3,4.8836
mp-24830,SiP3H29C10BrN,4.0491
mp-28089,P4Se3I2,2.0716
mp-28096,SCl,2.8658
mp-28109,SbAsO3,3.5024999999999995
mp-28110,Rb2PtI6,0.5131000000000001
mp-28128,SCl2,2.0565
mp-28135,NbXeF11,2.648
mp-28140,P2Pb3S8,2.2581
mp-28144,SiBi2O5,2.7077
mp-28145,Rb2PdCl6,1.2868
mp-28168,Th6CBr14,0.6522000000000001
mp-28174,Pd(SCl3)2,1.6115
mp-28175,Pd(SeCl3)2,1.7033
mp-28177,NaSbCl6,2.0358
mp-28178,NaNbCl6,2.2372
mp-28179,NaTaCl6,2.9019999999999997
mp-28185,TaClF8,3.3874
mp-28195,SiAg2O3,0.6345999999999998
mp-28198,RbInI4,2.5376000000000003
mp-28208,ZrFeCl6,0.741
mp-28214,TiBr3,0.015199999999999882
mp-28218,TlCdCl3,3.2947
mp-28219,TlCdBr3,2.746
mp-28222,Rb3Sb2Br9,1.9084
mp-29543,P2SeO3,3.1407
mp-29546,Sr13(MgSi10)2,0.036100000000000236
mp-29549,Si(PH2)4,3.929
mp-2955,NaMgF3,6.7529
mp-29568,RuS3Cl8,1.8602
mp-29573,Sb4S5Cl2,1.8692
mp-29579,Sc7NCl12,0.004299999999999749
mp-29590,Sn2OF5,1.9099
mp-29591,Sb3ClO4,2.6768000000000005
mp-29592,RePCl9,0.8379000000000001
mp-29593,Re2(PCl8)3,0.004499999999999949
mp-29598,NaP4N7,4.2139999999999995
mp-29599,Re3(SBr)7,1.3261
mp-29603,Rb2ZrTe3,0.4985
mp-29606,Rb2Zn3O4,1.4095
mp-29612,RbEu2I5,1.2759
mp-29629,Be3P2,0.14510000000000026
mp-30828,Sr2Pb,0.008999999999999897
mp-4356,CaSiO3,3.527899999999999
mp-4359,Sr2PdO3,0.2271000000000001
mp-4361,K4Ta2S11,1.6605
mp-4387,SrZrO3,3.6203
mp-4391,MgSiO3,4.642499999999999
mp-4394,Pr2Sn2O7,2.6358000000000006
mp-4400,Si2N2O,5.177900000000001
mp-4425,Ta2Pt3Se8,0.6803000000000003
mp-4429,CaSiO3,4.8369
mp-4431,Ag3AsS3,1.1736
mp-4438,CaSnO3,2.3301
mp-4445,Hg3AsO4,0.4925
mp-4446,Sr3(GaO3)2,3.5262
mp-4449,Tl2SeO4,3.2312000000000003
mp-4471,ScAlO3,4.591900000000001
mp-4515,Ag3SbS3,0.9528
mp-4535,PrGaO3,3.3909
mp-4541,NaCuO2,0.4914000000000003
mp-4575,MgGeO3,2.9034000000000004
mp-16911,Rb2S5,1.9539
mp-16919,Y2HfS5,1.2263000000000002
mp-16927,NaTbGeO4,3.5921
mp-16947,LiAlGeO4,3.1826
mp-16975,RbC10,0.7232000000000003
mp-16977,Ti(MnP6)2,0.001200000000000756
mp-16980,Rb2B4O7,4.593999999999999
mp-17004,UOF4,1.9953
mp-17020,TiTl2(GeO3)3,2.6548
mp-17037,Rb2Ti(SiO3)3,3.1377000000000006
mp-17043,Tm2ZnS4,2.38
mp-17056,LiZnPO4,4.1081
mp-17085,Rb2Zr3OF12,5.3336
mp-19726,Sc3InB,0.12190000000000012
mp-19784,In2Si2O7,1.8171
mp-19787,Sr(GeRu)2,0.001700000000000479
mp-19805,U(GePt)2,0.002799999999999692
mp-21190,PbSO3,3.2196
mp-21208,RhF3,0.5624
mp-21228,SrCuSeF,1.1989
mp-21277,Gd(SiPt)2,0.002799999999999692
mp-21283,Cs2PbO3,1.3724
mp-22854,Pr2I5,0.13020000000000032
mp-22858,TlI,2.1452
mp-22863,CuI,1.5721999999999996
mp-22865,CsCl,4.9881
mp-22872,SbCl3,3.7419
mp-22874,PBr5,1.6183
mp-22875,TlBr,1.9877
mp-22883,PbI2,2.4224
mp-22887,EuCl2,1.2143999999999997
mp-22893,PbI2,2.3702
mp-22901,KI,3.24
mp-22917,CuBr,0.9949
mp-22930,Rb4CdCl6,3.9341
mp-22945,TeRhCl,0.7782
mp-22957,SrClF,5.9367
mp-22959,AgClO2,0.9478000000000002
mp-22961,Li2ZnCl4,4.1422
mp-22969,PbIF,2.0757
mp-22975,Rb2TeCl6,2.64
mp-22976,Rb2(NbCl3)3,1.0958
mp-22979,GaBiO3,1.225899999999999
mp-24865,SmCoO3,0.6162999999999998
mp-25035,MnBiO3,0.07969999999999987
mp-25091,La2NiO4,0.658100000000001
mp-25096,NiBiO3,0.31959999999999944
mp-25156,NaV6O11,0.3644999999999996
mp-28223,LaSe2,1.3399
mp-28234,CaAl12O19,4.3195000000000014
mp-28237,RbLiBr2,4.322
mp-28241,ZrI2,0.07629999999999981
mp-28243,RbLiCl2,5.1482
mp-28251,Ta2Zn3O8,3.5103000000000004
mp-28256,V2Se9,0.7130000000000001
mp-28257,SOF2,5.2887
mp-28266,P2Pd,0.4579000000000004
mp-28268,PtI3,0.34019999999999984
mp-28275,Rb2PrCl5,4.8509
mp-28288,BaGe2O5,1.8132
mp-28289,SiH3F,6.169499999999998
mp-28293,SnPCl9,2.4075
mp-28297,Nd3S2Br5,2.9614000000000003
mp-28299,USe2O7,2.1387
mp-28304,Ca3(AlAs2)2,1.1222999999999996
mp-28315,Rb4CdBr6,3.1975
mp-28319,PtI2,1.2251
mp-28320,Pt3I8,0.8003999999999998
mp-28323,Pd2Cl2O,0.6905999999999999
mp-28324,Sr3(InP2)2,0.5902000000000003
mp-28329,TlI3,1.6813
mp-28330,TeAuCl7,1.5353
mp-28334,Tl4SiSe4,1.4648000000000003
mp-28344,Zr6CI14,0.7934999999999999
mp-28345,Zr6CI12,0.2801
mp-28346,SrSe2O5,3.2808
mp-29680,Ta2Bi4O11,2.7997000000000005
mp-29690,Tl2Te2O5,2.8109
mp-29693,Rb2AgCl3,2.9649
mp-29699,TiNb3O6,0.5207999999999999
mp-29705,Rb6Sn2S7,2.1194
mp-29709,Hg3PO4,0.7357
mp-29713,NbTeCl9,2.1697
mp-29716,TaTeBr9,2.1847000000000003
mp-2973,Pr3Sb5O12,3.168
mp-33302,MgAl2O4,4.2658
mp-33314,Li3Mn2O4,0.009699999999999598
mp-33322,LiHoSe2,1.5785
mp-3334,Tm2Sn2O7,2.6486
mp-3336,LaGaO3,3.3763
mp-33363,LiYS2,1.9597
mp-33526,LiBiS2,0.8113000000000001
mp-33569,Sr(LaSe2)2,1.8829
mp-33631,TiZn2O4,1.4336000000000002
mp-4578,Sr2GeS4,2.3165000000000004
mp-4582,NdRhO3,0.6467999999999998
mp-4584,Tl3BO3,1.3030000000000002
mp-4585,Pr6Fe13Au,0.0011999999999998678
mp-4589,PrPO4,5.6478
mp-4590,Mg(GaO2)2,3.1080999999999994
mp-4591,SrNb2O6,2.9952
mp-4598,Sr4PtO6,2.2143
mp-4618,Rb2SeO4,3.6361
mp-4626,CaCO3,4.171200000000002
mp-4632,Sr3(PO4)2,5.4064000000000005
mp-4644,Si2N2O,4.4106999999999985
mp-4649,PdSe2O5,0.9947
mp-4655,SrTl2O4,0.08289999999999997
mp-466,Nb2F5,0.14979999999999993
mp-4661,ScOF,4.475899999999998
mp-4662,ScOF,4.5928
mp-4672,TbPS4,2.1701999999999995
mp-4673,SrHfO3,3.9571
mp-4682,ZnSeO3,3.4386
mp-4693,RbAlF4,6.9438
mp-4699,NaTaO3,2.3846
mp-4709,PrNbO4,3.7547
mp-4718,NdTaO4,4.0262
mp-4721,RbSb3Se5,1.2305
mp-4733,ThTi2O6,3.1455999999999995
mp-4734,NaPO3,4.971
mp-4736,NdP5O14,5.3904
mp-4748,NaNbO3,1.6810000000000005
mp-4759,ZrTe3O8,3.6712
mp-476,Ge3N4,1.9151
mp-4762,TlAg3S2,0.9032999999999998
mp-4764,Pr2SeO2,2.1691000000000003
mp-17114,Nd2Sn2O7,2.6641000000000004
mp-17119,SrCu3(SnO3)4,0.4531000000000001
mp-17123,Si2Os,0.652000000000001
mp-17149,Sr3ErRhO6,2.1919999999999997
mp-17154,Rb3SbS4,2.0228
mp-17164,NaNbGeO5,3.0775
mp-17177,Nb2ZnO6,3.2874000000000003
mp-17196,TiAs2O7,2.7038
mp-17207,Tl4GeS4,1.901
mp-17217,Tl3GeTe3,0.6694
mp-17220,Rb3TaS4,2.8458
mp-17229,RbBe3ZnF9,6.2801
mp-19893,PbCO3,3.3293
mp-19912,UMnSe3,0.0005000000000006112
mp-19914,RbGdTe4,0.0019000000000000128
mp-21325,KO2,0.1116
mp-21405,InSe,1.0795999999999997
mp-21409,Zn(InS2)2,0.19399999999999995
mp-22999,Hg3(ClO)2,0.29939999999999994
mp-23007,SbSI,0.6814
mp-23022,KClO3,5.4604
mp-23024,SrBrF,5.0003
mp-23033,Sr2NCl,1.9398000000000004
mp-23034,SrZnCl4,4.298
mp-23043,RbPb2Br5,3.0418000000000003
mp-23046,SrIF,4.3112
mp-23049,KMnCl3,1.3655
mp-23052,ZrIN,1.2218
mp-23053,PbICl,2.7152
mp-23056,Sr2BrN,1.8455
mp-23058,NdClO,4.766400000000001
mp-23059,Rb2SnCl6,2.5354
mp-23066,Pb5(SI3)2,1.8132
mp-23068,NdBrO,4.4819
mp-23074,BiOF,3.1226000000000003
mp-23076,Rb2CoCl4,0.7331000000000001
mp-23079,SiCl2O,5.5476
mp-23080,AlBiO3,1.5859999999999994
mp-23089,SrTa2Bi2O9,2.4928
mp-23093,Sr2NdBiO6,1.7018
mp-23098,ReNClF5,1.7905000000000002
mp-23099,Cs2Pd(IBr2)2,0.6891
mp-23100,Sr2LuBiO6,1.9118
mp-23101,Nb2Bi2PbO9,1.1775000000000002
mp-23104,Pb2ClOF,2.5689999999999995
mp-23121,Sr5P3ClO12,5.0783
mp-25436,TiPO4F,2.4746
mp-25529,LiFePCO7,0.013899999999999968
mp-25609,NiH12(N3O2)2,0.6323
mp-25672,VPO5,1.9882
mp-25720,VAg(HO2)2,2.0853
mp-28358,NbAlCl8,2.0379
mp-28364,Rb2CdO2,1.3087
mp-28368,TlAuCl4,1.7616999999999998
mp-28375,Ta2AgF12,0.7143000000000002
mp-28380,Rb3TlO3,1.4608
mp-28387,PAuCl8,1.3333
mp-28391,SiCl4,5.5541
mp-28393,P3Se4I,1.6437000000000002
mp-28394,Tl2PSe3,1.5420999999999996
mp-28397,Sr4Bi6Se13,0.4887000000000001
mp-28399,H2CS3,1.9797
mp-28400,P3Ru,1.1445999999999996
mp-28405,S(ClO)2,3.6538
mp-28406,SCl2O,3.6424
mp-28407,SBr2O,2.7319999999999998
mp-28414,Nd2GeO5,2.4351000000000003
mp-28420,SrH4O3,4.3444
mp-28431,Sb(IF3)2,0.5589999999999999
mp-28432,Tl3Cd2I7,1.8253
mp-28433,RbClO4,5.4759
mp-28437,RuClF8,1.12
mp-28442,TlAs5S8,1.5672
mp-28450,Li4P2O7,5.6108
mp-28456,Sn15Os3O14,1.5080999999999998
mp-29741,Tl2(CdSb)3,0.04240000000000066
mp-29743,Sr5U3O14,2.0422
mp-29762,GdBO3,2.0483
mp-29764,RbHF2,6.6904
mp-29775,Sr4PdO6,1.6164
mp-29791,Nd4PdO7,1.0861
mp-29806,Cs2PdI6,0.5814999999999999
mp-2981,CaTeO3,2.9347000000000003
mp-29815,LaAs2,0.5974000000000004
mp-30906,Sr2Al6O11,4.124
mp-30938,PAuS4,1.3165
mp-3094,SrAl2O4,4.1398
mp-30949,Sr3SiO,0.42959999999999976
mp-30950,Sr3GeO,0.3363999999999998
mp-33652,Pr2Mo15O28,0.7960000000000003
mp-33667,LiDyS2,1.9742
mp-33684,Ti(FeO2)2,1.1230000000000002
mp-33690,PrSO,1.9172
mp-3372,Rb2SO4,4.9943
mp-3374,Nd4Au2O9,1.9966
mp-33753,TaHO3,2.7443
mp-3376,Sr2SnO4,2.5727
mp-33816,Rb6Fe2O5,1.2235
mp-3382,CaSiO3,3.5146
mp-33916,Nd2CuO4,0.7073
mp-3393,Sr3Al2O6,4.2046
mp-3395,SrSeO3,3.6958
mp-33997,TaO2F,2.0476
mp-341,PbF4,1.9022
mp-4769,SiP2O7,5.8048
mp-4782,CaSnF6,5.4068000000000005
mp-4789,PrRhO3,0.6013000000000002
mp-4790,ThGeO4,3.8957
mp-4794,Sm2As4O9,3.3593
mp-4798,Sc(AlC)3,0.02890000000000015
mp-4818,Rb2Sb4S7,1.2221000000000002
mp-4820,ZrSiO4,4.4661
mp-4824,NaZnP,0.9143000000000004
mp-487,MnP4,0.4347000000000012
mp-4886,NdCuO2,2.4051
mp-4888,NbPO5,3.0812
mp-4900,BaCeO3,2.2279
mp-4917,LaAsO4,3.9896
mp-4930,TiAl2O5,2.9468
mp-4934,Al2SiO5,4.992799999999999
mp-1020578,Sr4S3O,2.1146000000000003
mp-10762,Cd3As2,0.14979999999999993
mp-1087215,NaAsF6,4.9287
mp-1096785,Al2Zn2S5,1.2564000000000002
mp-1096814,Al2ZnS4,0.4131999999999998
mp-1096827,AlCuS2,1.3764000000000003
mp-11019,GaCuO2,0.7812999999999999
mp-12908,ScAgSe2,0.6802000000000001
mp-12978,SnO2,0.9607
mp-13815,Rb2NaErF6,6.4981
mp-14890,Rb9Fe2S7,0.5308999999999999
mp-17235,Sm2Si2O7,5.1057000000000015
mp-17240,RbNa3Li12(SiO4)4,4.5889999999999995
mp-17243,Pr3CuSnSe7,1.2305
mp-18848,Sr2MgWO6,3.2641
mp-18868,RbFe(MoO4)2,2.6065
mp-19164,BaDy2CoO5,1.4218000000000002
mp-19230,K3NaCr2O8,3.0589000000000004
mp-19949,Sc2Cu2Ge4O13,0.19099999999999984
mp-20047,Pu(SiPd)2,0.0019000000000009012
mp-2064,RbF,5.9045
mp-23092,Ba2TaBiO6,2.5855
mp-23131,Sr2BN2Cl,2.7508
mp-23138,SbPbClO2,1.9094000000000009
mp-23141,Sr5P3BrO12,4.9315
mp-23144,TlRe3(Se2Cl)2,1.5063000000000004
mp-23450,RbIO4,2.494
mp-25053,Sr2NiMoO6,2.079600000000001
mp-25145,VO2,1.0743999999999998
mp-25792,VO2,0.17720000000000002
mp-28464,Re3(TeI)7,0.8462999999999998
mp-28474,S7(N3O4)2,2.0213
mp-28786,Zn(BIr)2,0.04079999999999995
mp-29487,PdCl2,1.3705
mp-29525,Rb3BiO3,3.1029
mp-29763,RbMnBr3,1.182
mp-29827,Rb4Hg5Te13,0.6505000000000001
mp-29831,TaCl5,2.8237
mp-29832,Sm10Se19,0.27010000000000023
mp-30980,NaYO2,4.132999999999999
mp-30981,Te(HO)6,3.0698
mp-30983,CaP4O11,5.3423
mp-30984,S(IO3)2,1.8695
mp-32404,Ta2VO6,0.8707000000000003
mp-3387,CaSiO3,3.6538
mp-3404,RbSO3,5.0191
mp-3612,NbSbO4,2.3515
mp-4636,ScCuO2,2.3904999999999994
mp-4941,Sr2SnO4,2.7048
mp-4950,KCaF3,6.1391
mp-4959,Ca(GaO2)2,2.9772
mp-504506,RbIn(MoO4)2,3.9647
mp-540820,Re(CO)5,2.9921
mp-541907,Fe3O4,0.35809999999999986
mp-546320,Rb4CO4,1.8353
mp-547029,Na3SO4F,2.3611
mp-556060,NdTeBrO3,0.3353999999999999
mp-558817,Na2FeNiF7,2.7642
mp-570079,Al5C3N,0.8357000000000001
mp-578721,NiH12SO10,4.9868000000000015
mp-625404,AlHO2,5.495400000000001
mp-625420,AlHO2,4.8339
mp-634706,NiO2,0.2025
mp-667380,Rb3Nd2(NO3)9,3.4486
mp-696762,TlP2H5O8,5.105600000000001
mp-698301,ZnH6C2(SO3)2,3.7386
mp-755071,SnO2,1.2960999999999996
mp-761564,Li2MnP2O7,2.3245
mp-763051,Li2VO2F,1.8069
mp-763427,V4O7F5,1.5181
mp-763935,V6O7F5,0.9371
mp-765034,Mn2OF3,0.9987
mp-765244,LiV2O2F3,1.7317000000000002
mp-765890,LiMnPO4,3.6122
mp-770851,Li2TiNi2O5,2.1103
mp-771787,TiMn3O8,1.4123
mp-771986,Li4Fe3O8,0.1331
mp-772592,RbFeO2,1.7937
mp-777500,V3(O2F)2,0.7448999999999999
mp-777908,Li2FeBO4,2.7011
mp-779012,Tm3TaO7,3.415
mp-779364,Li2CoBO4,1.4436000000000002
mp-780370,Sm3Al5O12,4.1378
mp-8484,ZnO2,2.1272
mp-850109,Li2FeP2O7,3.9051
mp-850185,Li3Bi(PO4)2,3.9466
mp-8812,Rb2GeF6,5.9668
mp-990430,SrTa2H2O7,2.1892
mvc-11645,Zn(FeO2)2,1.8597
mvc-3515,YCoF5,3.0387
mp-1008523,BC2N,1.5215999999999994
mp-1008858,NdBiPd,0.1051000000000002
mp-1009129,MgO,3.0152
mp-1009551,PbS,0.7372999999999994
mp-1036381,CaMg14NiO16,3.5106
mp-1047184,Ca(SnO2)2,0.9879999999999995
mp-10550,SrMg2N2,1.6917
mp-10577,Sr5NbN5,1.1591
mp-1070375,CsSnCl3,0.9787
mp-10759,GeSe,0.058300000000000025
mp-1100401,YCdB,0.4766000000000004
mp-1100413,TiCuB,0.1974
mp-1100424,LiMgSb,1.1130999999999998
mp-1100426,SrLiSb,1.0504
mp-1100428,LiYSi,0.3555999999999999
mp-1101339,TbGaO3,3.7152
mp-1104050,Y(AlC)3,0.03960000000000008
mp-13150,BN,4.3877
mp-16152,Pr2Te2O7,1.5336999999999996
mp-1794,BeO,8.168299999999999
mp-18741,RbLiCrO4,2.9916
mp-19227,YMnO3,0.000399999999999956
mp-20470,Gd2O3,2.9035
mp-20832,Zn(InTe2)2,0.8291
mp-21609,SrCuN,0.2645
mp-21855,VCu3Se4,0.8164000000000002
mp-23162,ZrCl2,0.8481000000000005
mp-23227,CuBr,0.43020000000000014
mp-23598,SIO3F,1.9298
mp-23837,NdH3(CO2)3,4.1896
mp-23947,Cs3MgH5,2.6053
mp-24292,Sr2H6Ru,2.234900000000001
mp-25558,MnO2,1.521
mp-25596,LiNiO2,0.5722
mp-27291,PaCl4,0.01580000000000048
mp-28074,RbPaF6,3.984
mp-28797,YHSe,1.5080999999999998
mp-29251,Te6Br2O11,2.5231000000000003
mp-30460,YNiBi,0.2073999999999998
mp-31451,ZrCoBi,0.9771999999999998
mp-31454,TaSbRu,0.6669
mp-3188,Zn(SbO3)2,0.5421999999999993
mp-32899,Li2S,1.9737
mp-32959,H2O,5.2753999999999985
mp-33029,Nd2O3,0.9034
mp-34296,Zn(FeO2)2,1.4928
mp-34376,Tb2CdS4,1.8688
mp-34501,Fe2CoO4,0.07299999999999951
mp-35746,Sr(YS2)2,2.1883
mp-35777,Mg(InTe2)2,0.6792000000000002
mp-36248,H4BrN,4.0509
mp-38103,NaClO4,5.2812
mp-38194,YOF,5.6328
mp-505311,Sr2CrCuSO3,0.9866
mp-510132,Y2WO6,3.8042
mp-540284,CuPO4,0.1441
mp-546202,Li4CO4,4.177
mp-546679,Nd2AlNO3,1.0619999999999994
mp-555256,Li4CO4,6.072799999999999
mp-556120,RbTl(SO4)2,1.9822
mp-556422,NbCl3O,2.8024
mp-557142,Li2S,3.1532000000000004
mp-557773,Sc2TeO6,2.886
mp-558200,SiO2,5.3176999999999985
mp-560882,SeO2,3.4194
mp-561291,SiO2,5.265300000000001
mp-561328,SbSe(BrF2)3,2.5975
mp-567019,ZnTeMoO6,3.0888
mp-567713,Nb3TeI7,0.4779999999999998
mp-568269,TmNiBi,0.15039999999999942
mp-568516,K3Bi,0.13129999999999994
mp-569779,ScSbPd,0.27830000000000066
mp-570744,Si3As4,0.4043000000000001
mp-581143,RuOF4,0.5205
mp-604120,PH6NO4,4.9267
mp-618991,Cu2S,0.12890000000000068
mp-625171,H7ClO3,4.2299
mp-625501,NaH9O5,4.3239
mp-626554,NaH9O5,4.2012
mp-626689,Fe(HO)2,2.2781
mp-676561,Ag3SI,0.34129999999999994
mp-690542,Li4WO5,3.0471
mp-6920,KNO3,2.9587000000000003
mp-7173,ScSbPt,0.6440999999999999
mp-7214,Sr3CrN4,1.5373
mp-755018,RbTaO3,2.3882
mp-755342,LuGaO3,2.5134000000000003
mp-760396,TaAlO4,2.5859
mp-761495,Li2Ni(PO3)4,4.5274
mp-762796,LiFeSiO4,2.8989
mp-763279,VPH7N2O5,2.7996
mp-763696,Li5(CoO3)2,0.9501
mp-764277,VO2F,1.6019
mp-764943,Fe4O3F5,1.483
mp-767069,LiVSiO4,2.6385
mp-770387,LiMnAlO4,1.6148999999999996
mp-770690,Mn3TeO6,0.5237999999999996
mp-771219,Li(CoO2)2,0.5920000000000001
mp-771568,SrCa2I6,3.7101
mp-774147,FeHO2,2.1185
mp-776015,Li2Ti3NiO8,2.2797
mp-776448,BaNb3NO7,0.8202999999999998
mp-777801,LiFeF4,3.8649
mp-778194,Ge2N2O,2.414
mp-778719,Mn3OF5,0.3839999999999999
mp-778819,LiMnF3,3.2543
mp-779165,Li2MnF5,1.4327
mp-780593,VO2F,1.9711
mp-780753,FeOF,1.7395999999999998
mp-781958,V4O3F5,0.5565000000000002
mp-782681,FeOF,1.1254000000000002
mp-7853,NaTl3(SO3)2,2.8420999999999994
mp-865280,NbAlFe2,0.32070000000000043
mp-8884,ZnTe,1.1007000000000002
mp-9330,CdPS3,1.7726999999999995
mp-971787,VBr2,1.1314000000000002
mp-972387,Sr2MgGe2O7,3.6039
mp-985293,Al(HO)3,5.800700000000001
mp-989190,ScBrO,3.3514000000000004
mp-1020615,Y2SiP4O15,5.5755
mp-1174880,Li7Mn2(CoO4)3,0.19309999999999986
mp-1176878,Li7V3P8O29,0.5316000000000001
mp-1177331,Li4MnCrO6,1.0036999999999998
mp-1182001,Ca3V2O8,3.4766
mp-1184546,HoBO3,2.733
mp-1186593,PmI,0.43759999999999977
mp-1188793,NaCO3,0.6499
mp-1206686,TbNiBi,0.22970000000000024
mp-1206761,Sr2LaNbO6,2.9846000000000004
mp-1206896,Yb2Te3,0.09360000000000036
mp-1207916,Tm3Sc2Al3O12,4.5478000000000005
mp-1208421,Tb5(ReO6)2,0.03329999999999966
mp-1209612,Rb2LaBr5,3.4763
mp-1216189,WNO,0.05649999999999977
mp-1216578,TmBiTe3,1.1258
mp-1218510,Sr3Zr2Nb2O12,2.0433000000000003
mp-1218517,Sr4Al6MoO16,3.5933
mp-1220058,Re3S4O8F,0.008299999999999974
mp-1220301,NbTlWO6,2.81
mp-1223382,KNa4Cl5,4.8695
mp-13067,Tm2O3,4.146
mp-1411,TaS2,0.0648
mp-1572,GaSe,1.2405999999999997
mp-15776,Zn(GaSe2)2,1.3974999999999995
mp-16995,Sm3Si6N11,3.0112999999999994
mp-189,SiRu,0.2258999999999993
mp-19251,RbLiCrO4,2.9760000000000004
mp-20316,PPbSe3,1.6562999999999994
mp-20459,TiPbO3,1.8357
mp-27854,TaCl4F,3.0922
mp-29136,Sr6Cu3N5,0.4763000000000002
mp-30161,Si2CN4,4.3687000000000005
mp-30520,Tl2S5,1.6678999999999995
mp-32880,CuBr,0.448
mp-510279,ZnAsHPbO5,3.2301999999999995
mp-546711,CsClO4,5.3068
mp-5475,NaTaN2,1.2820999999999998
mp-550506,KClO3,5.0728
mp-553932,GaPO4,4.4398
mp-554089,SiO2,5.660399999999999
mp-554151,SiO2,5.725199999999999
mp-554432,ReSbOF10,1.9811
mp-554570,H10C3NClO4,5.6154
mp-554646,TeS4(NCl)4,1.8941
mp-555021,TePbO3,2.6712
mp-555235,SiO2,5.503399999999999
mp-556020,Li3AlF6,7.915100000000002
mp-556985,SiO2,5.6098
mp-557134,SiO2,5.4591
mp-557560,LiH4SNO4,5.2109
mp-558134,TlF,3.0101000000000004
mp-558879,OsOF4,0.5956999999999999
mp-560614,KLiSO4,5.260300000000001
mp-568100,ReNCl4,1.0777
mp-570008,Sr3BiN,0.2589000000000001
mp-600059,SiO2,5.7102
mp-620033,BaCu(SeO3)2,0.4377000000000002
mp-625565,Cd(HO)2,1.7861
mp-625604,H9BrO4,3.7298
mp-626500,Al(HO)3,4.5759
mp-632282,NaHF2,6.987500000000002
mp-642210,MgSiO3,4.2049
mp-644271,LiHS,3.4984
mp-672966,LiCu(PO3)4,0.6957
mp-674350,TiPb9O11,1.7973
mp-675677,Yb(SmS2)2,2.0578
mp-680111,CdI2,2.3667
mp-684704,H2O,4.7494999999999985
mp-6930,SiO2,5.7056
mp-7007,NbSe2,0.05799999999999994
mp-7444,RbSb,0.5411000000000001
mp-752636,LiSbO3,1.1944999999999997
mp-752826,Al2O3,4.0173000000000005
mp-753539,SbOF,3.3539999999999996
mp-753671,PNO,5.0655
mp-753798,Rb2SnO3,2.1213
mp-754401,Al2O3,4.2235000000000005
mp-754519,LiNb(TeO4)3,1.5556
mp-755256,LiBiB2O5,3.2969
mp-755959,NaLiO,1.5957
mp-756202,Ba2SrI6,3.5958
mp-756632,NbO2F,1.2697
mp-756912,LiZnBO3,2.9774
mp-757889,LiSn(PO3)3,3.8805
mp-761118,Ti7Sn3O20,1.5248999999999997
mp-762713,LiMn(PO3)3,4.5887
mp-762794,LiMn(PO3)3,4.3219
mp-763136,FeOF,1.6772
mp-763330,FeOF,1.2643
mp-764285,VOF3,2.218
mp-764572,VO2F,1.5277
mp-764716,Fe2OF3,1.5097
mp-764850,Li3(NiO2)4,0.2835000000000001
mp-765142,LiCoSiO4,1.5515
mp-765398,Li2Fe2(CO3)3,3.7745
mp-765926,VF4,1.8728
mp-766761,LiFePO4,3.4596
mp-767001,WOF3,2.3593
mp-767367,VOF,1.9991
mp-767921,Nb2NiO6,2.0367
mp-768159,LiSnPCO7,3.0131
mp-769365,ZnSeO4,2.0654000000000003
mp-769377,SbSO4F3,1.8163
mp-769767,Li2CrO4,3.0643
mp-770219,NbAsO4,2.6353
mp-770553,Li2AlCoO4,1.6087
mp-770615,Li2CrO2,1.4981
mp-771676,MnSbO4,1.3157
mp-773248,Li4NbFe3O8,2.5126
mp-773864,TiSnO4,2.254
mp-774361,Li2Mn3F8,3.5244
mp-774424,LiMnVO4,1.3694000000000002
mp-775029,VSb3(PO4)4,1.8837
mp-776230,LiFeF4,3.1399
mp-776263,Na3CoO3,1.8316
mp-776794,Na4MnO4,0.7255
mp-778346,Li2MnF4,3.6791
mp-778720,Cr4OF11,0.7559
mp-778725,Na2FeO3,0.0494
mp-779191,LiCoSiO4,1.5174
mp-779348,Ta2CrNO5,1.2699000000000005
mp-779457,Ge2N2O,1.7353
mp-779943,VOF3,3.031
mp-779949,Mn6O7F5,0.11129999999999997
mp-7812,GeO2,3.2779
mp-7826,HgO,1.3101
mp-8415,K2HfF6,6.8346
mp-851038,NaLi2MnPCO7,3.6739
mp-860957,Zr5Ti7O24,2.7677
mp-866473,Ca4SnS6,2.2438
mp-8943,PtF4,1.1225
mp-9062,RbS,1.5613
mp-9252,HgS,1.6863
mp-9270,SbIrS,1.0694
mp-989617,YWN3,1.4101999999999997
mp-998412,KGeBr3,0.92
mp-1042087,Mg(WO2)2,0.8926999999999996
mp-1178561,AgClO3,2.7243000000000004
mp-1184046,CuCl,0.5679000000000003
mp-1205383,Nd2GeO5,3.8801
mp-17256,Rb2Hf3OF12,6.2789
mp-17272,NbCuO3,0.9479
mp-17275,SrY2O4,3.6959
mp-17279,SiO2,5.7151
mp-17282,SrTh2Se5,1.4103000000000003
mp-17298,SrTi4(PO4)6,2.7819
mp-17308,Tb2Si2O7,4.6357
mp-17315,Zr3Tl2OF12,4.2570000000000014
mp-17322,SrCu2SnS4,0.3982000000000001
mp-17323,TbCu(BO2)5,0.7693000000000003
mp-17324,ZrSnS3,0.9949999999999996
mp-17329,PrS2,0.3243999999999998
mp-17336,NpCuSe2,0.022800000000000157
mp-17337,RbAsOF4,3.7089
mp-17344,RbEr2Cu3S5,1.4910000000000003
mp-17355,Sr3GdRhO6,1.9414
mp-17357,NaSmSiO4,4.2409
mp-17364,Th(PRu)2,0.1357999999999997
mp-19965,K4BaU3O12,1.9861
mp-19985,TlIn(PSe3)2,1.4263000000000003
mp-19990,BaTiO3,0.014399999999999746
mp-20011,NaSbO3,1.4933999999999998
mp-20041,Sr2EuCu3(PbO4)2,0.08960000000000079
mp-20042,TlInS2,0.4748000000000001
mp-21452,Pb3O4,1.1583
mp-21461,Rb2PbO3,1.236