task_id,pretty_formula,band_gap
mp-752402,BaSrI4,3.1007
mp-752405,Dy2SiO5,4.7218
mp-752406,Rb3TmO3,2.1734
mp-752407,Dy2Ge2O7,3.8174
mp-752408,BaSrI4,3.4431000000000003
mp-752410,Ba2GeO4,2.9627
mp-752414,Tb2TiO5,3.3008999999999995
mp-752424,Ba4Br6O,3.6339
mp-752426,Li3SbS4,0.6929000000000003
mp-752439,BaSr2I6,3.8301
mp-752453,Sm2TiO5,3.0741
mp-752475,Rb2Ga2Ge3O10,2.1164
mp-752501,LiSiBiO4,3.0339
mp-752514,BaSrI4,3.6362
mp-752515,YTa3O9,3.2338
mp-752525,LiAgF2,1.7691
mp-752526,Lu2TeO6,3.0987
mp-752555,SrLa2O4,3.4421
mp-752579,Tm2TiO5,3.2759
mp-752605,LiAgF3,0.3289
mp-752656,BaLa2O4,3.1295
mp-752671,Ba2SrI6,4.0581000000000005
mp-752677,Ba2YBr7,3.213
mp-752685,ZrBiO4,1.0659000000000003
mp-752686,Sm3TaO7,3.4256
mp-761371,P5WO15,0.8798
mp-761380,Li3V(PO4)2,2.0582000000000003
mp-761383,Li2CrP2O7,3.0177
mp-761385,LiCrPO4,2.4433
mp-761386,LiCrPO4,1.7955
mp-761388,LiCrPO4,1.4076999999999995
mp-761396,LiCrPO4,2.2924999999999995
mp-761398,LiCrPO4,2.378
mp-761399,LiCrPO4,2.6114999999999995
mp-761406,Li2CrSiO4,2.448
mp-761408,Li3Cr(PO4)2,2.6907
mp-761416,LiFe(SiO3)2,2.7455
mp-761420,LiCrPO5,0.1773
mp-761424,TiFe(PO4)2,0.2784999999999997
mp-761425,Ti3VCu2(PO4)6,0.05250000000000021
mp-761431,Ti5Fe7O18,1.3637999999999997
mp-761432,NaNi3P4H8NO16,4.3698
mp-761435,LiCrPO4,2.4969999999999994
mp-761446,Li2Cr(PO4)2,0.8675000000000002
mp-761450,LiFeSi3O8,3.1816
mp-761911,Li2Cu(PO3)4,0.8690000000000001
mp-761922,LiNb(TeO4)3,1.4654000000000005
mp-761970,LiCoPO4,2.8086
mp-761971,LiLaNb4O12,1.3084
mp-761977,LiNiPO4,3.1894
mp-764036,Li3Mn3CrO8,0.4144000000000001
mp-764043,Li3Mn3NiO8,0.3628
mp-764044,Mn3OF5,0.24
mp-764046,V3(O2F)2,0.4558
mp-764047,LiVPO5,2.2049000000000003
mp-764052,VOF,0.7528999999999999
mp-764053,V3OF11,1.5254
mp-764057,VO2F,1.6388
mp-764059,Li8Co(O2F)2,2.4745
mp-764085,NaMnPCO7,1.3488
mp-764086,V4OF11,1.5131
mp-764087,V2(OF)3,1.4253999999999998
mp-764092,Mn6OF11,0.24750000000000005
mp-764102,Li3Fe2(SiO4)2,0.9314
mp-764112,V2(OF)3,1.4706
mp-764113,V3OF11,1.9062
mp-764115,V3O7,1.1608
mp-764136,Mn3(OF2)2,0.03600000000000003
mp-764138,Li3Fe(PO4)2,1.8362000000000005
mp-764141,NaVP2O7,2.141
mp-764146,Co3(OF2)2,0.4456000000000001
mp-764148,V3O5F,0.7855000000000003
mp-764155,Mn6OF11,0.4441000000000001
mp-764157,Na3Fe2(PO4)3,2.3868
mp-764162,NaMn(PO3)3,4.3628
mp-764168,Co6O5F7,0.08719999999999994
mp-764178,Li3V3P8O29,1.2246
mp-764179,Li3VO3F2,2.5993000000000004
mp-764183,Li5MnCr3O8,2.2576
mp-764187,V4OF11,1.4857
mp-764188,NaV5O10,1.0100000000000002
mp-764196,Li2VO3F,2.452
mp-764198,LiVOF4,2.1252
mp-767310,Li3VPCO7,3.0435
mp-767313,Li2Si2NiO6,3.4086
mp-767326,Li3NiPCO7,3.4922000000000004
mp-767333,Li2Si3NiO8,3.8379
mp-767338,V(SiO3)2,1.8443
mp-767342,Li3CoPCO7,2.7656
mp-767343,Li3CrPCO7,2.6734
mp-767347,Li3FePCO7,4.2418
mp-767349,LiVF5,1.9884
mp-767350,LiVF3,2.3717
mp-767355,CoPO4,1.2662
mp-767356,LiCo(SiO3)2,1.2376
mp-767360,LiMn(SiO3)2,0.6123000000000003
mp-767364,Li2Mn2Si2O7,2.6963
mp-767398,Gd3AsO7,2.0907
mp-767403,Li5SbS,1.1225
mp-767407,Li5SbS,0.7834000000000003
mp-767419,NaPH2OF6,6.1895
mp-767424,KLiSb3O8,0.2885999999999997
mp-767433,LiV2OF5,1.7501
mp-767444,Li2Mn(CO3)2,3.8184
mp-767445,LiVFeP2(HO5)2,1.7004
mp-767449,Li2VSiO5,1.6081999999999996
mp-767453,Li4MnFe3(PO4)4,3.7374
mp-767454,PWO5,1.6157
mp-767463,LiVSiO4,2.6415999999999995
mp-767464,LiVCrP2(O4F)2,1.1921000000000002
mp-767468,Li6Mn2O5F2,1.1377
mp-767472,LiVSiO4,2.0159
mp-767474,LiVSiO4,0.14389999999999992
mp-767477,Ta2MnO6,2.0255
mp-767479,Li2V2SiGeO10,1.852
mp-767481,P4WO13,2.3114
mp-770885,Li3FeO3,2.2955
mp-770889,La2WO6,3.222700000000001
mp-770891,Ti3Cr3(SbO8)2,0.7077999999999998
mp-770892,VPO5,1.9487
mp-770893,Li4Fe2O5,1.5990999999999995
mp-770898,Ti3Nb2V3O16,1.11
mp-770900,NaMnAsCO7,1.0809
mp-770903,Li3Mn(BO3)2,1.2378
mp-770904,Li3Mn(BO3)2,1.4244
mp-770906,Li3Mn(BO3)2,1.3439
mp-770907,Gd2W2O9,2.4647
mp-770913,Cr2PO5,1.1185
mp-770914,Na3Li3Fe2P2(CO7)2,3.8264
mp-770915,Ti3Mn3Cr2O16,0.8502999999999998
mp-770927,Sm3TaO7,3.4923999999999995
mp-770935,Na3CuPCO7,0.15949999999999998
mp-770936,Ba2Sc2O5,2.8133000000000004
mp-770959,Ba3GeO5,2.6900000000000004
mp-770961,Li2TiMn2O5,0.6734
mp-770973,Li24MnCr11O36,1.0015999999999998
mp-770977,Ca2CeO4,2.2602999999999995
mp-770982,Li2VFeO4,1.1618
mp-771306,Dy2P4O13,5.3785
mp-771323,Tm2Ti2O7,2.9789000000000003
mp-771325,Dy2Cu2O5,0.3416000000000001
mp-771336,Na3MgPCO7,4.4597
mp-771338,La2P4O13,4.6152
mp-771342,Gd2P4O13,2.9666
mp-771354,Li24Ti7Cr5O36,1.3141000000000005
mp-771363,MnPO4,1.0529000000000002
mp-775192,VNi3(PO4)4,0.007099999999999884
mp-775198,Ti3P6WO24,2.5217
mp-775199,LiMnVO4,2.1401000000000003
mp-775200,MnNi(PO4)2,0.2797000000000001
mp-775210,Sb3P6WO24,0.1913999999999998
mp-775213,VNi3Sn2(PO4)6,1.4981999999999998
mp-775215,Li10Cr3Fe3(NiO8)2,1.6327000000000005
mp-775216,LiVTeO5,2.5249
mp-775220,V(GeO3)2,1.5087
mp-775224,NbV3(PO4)6,0.9933
mp-775226,LiMn2(BO3)2,0.5681999999999998
mp-775230,Li3CoPCO7,2.8354
mp-775239,Li4Mn3Fe(BO3)4,2.922
mp-775257,Li8Mn3Fe5(BO3)8,3.1048
mp-775259,Li2Mn3F8,3.3773
mp-775261,Li2MnFe(BO3)2,2.7141
mp-775262,Fe5O3F7,0.7847999999999997
mp-775265,Li2Mn3F8,3.0444
mp-775281,Li2MnFe(BO3)2,2.7149
mp-775285,Li2CoNi3O8,0.07960000000000013
mp-775306,Li2Ti3FeO8,1.9457
mp-779831,Li3V(BO3)2,2.7524
mp-779841,Li6Mn5Fe(BO3)6,2.6044
mp-779844,Li6Mn5Fe(BO3)6,2.6031
mp-779849,La2WO6,3.6137000000000006
mp-779850,Li5NiO4,1.7456
mp-779853,Li3Co(BO3)2,1.1831999999999998
mp-779854,Li8Mn7Fe(BO3)8,2.8974
mp-779856,Li3MnFe2(BO3)3,2.7535
mp-779867,Li8Mn7Fe(BO3)8,2.8852
mp-779869,Li2MnV(P2O7)2,0.42820000000000014
mp-779873,Li8Mn7Fe(BO3)8,2.9811
mp-779877,Li6MnFe5(BO3)6,2.7977000000000003
mp-779881,Fe4OF7,1.6630000000000005
mp-779883,LiV2P4(HO8)2,0.9867
mp-779884,Sr5W3O14,2.4118000000000004
mp-779885,Li2MnV(P2O7)2,0.28559999999999985
mp-779888,Li3Mn2Fe(BO3)3,2.6541999999999994
mp-779889,Li5FeO4,3.0739
mp-779890,Li2MnFe(BO3)2,2.7177000000000007
mp-779891,Li6Mn5Fe(BO3)6,2.6001000000000003
mp-779895,LiCr(PO3)3,2.6112999999999995
mp-779897,Fe6O7F5,0.2483000000000002
mp-779903,Fe4O3F5,0.6722000000000001
mp-779904,Ni(IO3)2,2.8945000000000003
mp-779905,Li3Mn2Fe(BO3)3,2.6487000000000003
mp-779906,Ca3WO6,3.5524
mp-779907,LiMnPH2O5,3.4271
mp-779913,Fe3OF5,1.7289
mp-779914,Fe3OF5,1.6254
mp-779916,Li2CuPO4,1.2004
mp-779917,Fe3OF5,1.4328999999999998
mp-779930,Fe3(OF2)2,1.3468
mp-779934,Fe3(OF2)2,1.3439
mp-779935,VOF2,1.7832
mp-779940,Li4CoO4,1.1866
mp-779942,Cr4OF11,0.9575
mp-779946,Fe3OF5,1.4380000000000002
mp-779955,Li3MnFe2(BO3)3,2.7735000000000003
mp-779961,Co6O5F7,0.06769999999999987
mp-779962,V6O7F5,0.7746
mp-779966,VOF3,2.8760000000000003
mp-779971,Li2MnFe(BO3)2,3.0082
mp-868418,Li2FeSi3O8,3.3017000000000003
mp-868606,V2Si4O11,1.7959999999999998
mp-868637,Li7(CoO3)2,0.28689999999999993
mp-868639,MnPO4F,0.1339
mp-639714,TlVTeO5,2.3593999999999995
mp-652046,Re3S4Br,1.622
mp-687204,NdReMoO8,3.3322
mp-687234,P2WO8,2.456
mp-689940,CoPO4,1.1473
mp-689943,CoPO4,1.2167
mp-689963,CrPO4,2.0446
mp-689967,LiMn(PO3)4,1.6151
mp-689979,LiFeP2O7,1.2115
mp-690004,LiCo(PO3)4,0.8352999999999999
mp-690012,CrPO4,1.6234
mp-690093,Ca2Fe2O5,1.0489000000000002
mp-690119,Ti3Fe5O12,1.4172000000000002
mp-690125,V5Fe3O16,0.8124000000000002
mp-690492,Ti5Fe7O18,1.3026
mp-690508,Ta2Mn4O9,2.6363000000000003
mp-690541,Tl2SO3,2.5793
mp-690546,TiNiO3,2.2505
mp-690552,SrLaMnMoO6,1.125
mp-690650,ZnH4(ClO3)2,2.5049
mp-690702,SnPHO4,3.3978
mp-690711,TlP(HO2)2,4.2688
mp-690725,TlCuHSO5,0.3320000000000003
mp-690817,SrFeMoO5,2.086
mp-691145,Li2NiO3,1.4157000000000002
mp-691151,V5CoO15,0.613
mp-693892,Sr2CrClO4,1.1299
mp-694534,LiFeP2O7,1.5153
mp-694541,FePO4,2.656
mp-694722,Li2NiP2O7,4.13
mp-694855,Li2MoO3,1.3572000000000006
mp-694856,V2Bi8O17,0.7101000000000006
mp-694876,NaSr2LaTi4O12,1.8852
mp-694917,Na4CaFe4(PO4)6,0.5366999999999997
mp-694929,SrLaTa2(NO)3,1.0135000000000003
mp-694982,Sr2La2MgTi3O12,1.8857
mp-694994,CoH22N7(ClO2)4,1.1316000000000002
mp-694996,RbNiW(OF)3,2.2474
mp-704604,Zr(MoO4)2,3.0967
mp-704731,KMnO4,2.0507
mp-704753,Hg2Mo2O7,2.2785
mp-704810,K2Cr2O7,2.5108
mp-704836,CaTiSiO5,1.395
mp-704879,Ni5Te4(BrO6)2,2.786
mp-704942,Li2Cr(PO3)5,2.1007
mp-704944,VAg2O3F,1.5815
mp-704950,SrFeSn(PO4)3,2.7579
mp-704991,Mn3(PO4)4,0.117
mp-705001,LiCrP2O7,3.0921
mp-705011,LiFeP2O7,0.9665
mp-705030,LiCr(PO3)5,0.0912
mp-705042,Co3C10O9,1.6855
mp-705059,TlNi4(PO4)3,2.8053
mp-705087,Rb3CoNCl4O3,2.7376
mp-705168,Sr5V3ClO12,3.9446
mp-705291,LiCrP2O7,2.8553
mp-705293,Li3V2(PO4)3,1.9338
mp-705301,LiCoP2O7,1.2293
mp-705329,Li3Fe2(PO4)3,2.5285
mp-705331,LiNiP2O7,0.2927
mp-705333,LiMo(PO4)2,2.6869
mp-705334,Li2V(PO3)5,2.1267
mp-705340,LiVP2O7,2.071
mp-705357,LiMnP2O7,1.2075000000000002
mp-705361,LiCrP2O7,1.9503
mp-705365,Li2V(PO4)2,1.4738
mp-705380,LiMo2P3O13,2.7289000000000003
mp-705452,SrLaTaMnO6,2.6272
mp-705468,Li3Mn3(PO4)4,0.6397999999999999
mp-705483,NaCa3Fe4(SiO3)8,1.7183000000000006
mp-705517,CsCoH18N6(ClO2)4,1.3271
mp-705523,CaLaVFeO6,1.2809
mp-705538,MoO3,0.5196000000000001
mp-705540,NaMn2Mo2H3O10,0.5825
mp-705541,V10O9,1.1357999999999997
mp-705549,Sr18Ni13O42,0.006299999999999972
mp-752693,Ba3(ClO)2,2.4533
mp-752695,SrCa2I6,3.6748
mp-752705,Ti(PO3)4,2.3564
mp-752715,Ba3(ClO)2,2.1949
mp-752717,La2SiO5,4.5002
mp-752728,Rb2S2O7,5.0587
mp-752729,CaTb2O4,3.6321
mp-752734,LiAg2F4,0.031000000000000024
mp-752878,LiAg2F4,0.18049999999999988
mp-752943,Li4Cu(PO4)2,0.6809999999999999
mp-752983,CeZr7O16,2.2640000000000002
mp-753000,NaSb3O8,0.7238999999999995
mp-753048,TiSnO4,1.8367
mp-753055,TbBi5O9,1.6102
mp-753090,Li2Cu2F7,0.005400000000000071
mp-753122,Sr2CuH2(SeO3)4,0.7816000000000003
mp-753130,Li4CuF7,0.1221000000000001
mp-762002,LiNiPO4,3.4977
mp-762003,Li2Fe2C2O7,2.9417
mp-762004,LiNiPO4,3.4387
mp-762005,Li2Fe(CO3)2,3.4179
mp-762006,LiNiPO4,3.5683
mp-762012,LiNiPO4,3.2464000000000004
mp-762020,LiNiPO4,3.3735
mp-762021,LiNiPO4,3.670900000000001
mp-762023,LiNiPO4,3.1685000000000003
mp-762025,NiP2(H8O5)2,5.0309
mp-762049,LiCu2PO4,0.5485999999999995
mp-762072,LiNiPO4,2.8542
mp-762082,ThH10N4O17,3.5538
mp-762154,LiNiPO4,3.1651
mp-764202,Li2VOF5,3.0336000000000003
mp-764206,NaV3O8,1.839
mp-764208,Li3V4O11F,2.3187
mp-764212,Li2VO3F,2.5305
mp-764217,Li5VO4F,1.8622000000000003
mp-764223,Li4VO4F,3.8853
mp-764231,Li3VO3F2,2.8286
mp-764238,WOF4,5.0012
mp-764239,Li2VCr(P2O7)2,2.1081000000000003
mp-764246,WOF4,4.5049
mp-764248,Li2VCr(P2O7)2,2.1292
mp-764249,Ni17(As3O16)2,1.9754
mp-764252,VOF3,3.4794
mp-764253,LiVOF3,1.1513
mp-764254,V4O7F5,1.1344
mp-764257,W7(OF5)6,3.4979
mp-764267,LiV3OF11,1.5192
mp-764272,Li2V(OF)2,1.6461
mp-764273,Na2LiMnPCO7,3.6455
mp-764275,V2O3F2,1.503
mp-764276,Li2Mn2F7,0.1708
mp-764283,VOF3,2.8799
mp-764284,V2OF7,1.7909000000000002
mp-764330,Fe10O11,1.1934999999999998
mp-767515,Gd3AsO7,2.3103
mp-767530,BaNa3PCO7,3.6661
mp-767539,Li6SbS2,1.0837000000000003
mp-767549,P4WO12,3.0049
mp-767555,LiVSiO4,2.052
mp-767557,Li3Mn(OF)2,1.4869
mp-767567,P2WO8,2.2697
mp-767570,Li4Mn3Fe(PO4)4,3.585
mp-767572,Li2MnF5,1.7835
mp-767574,Li7Mn(O2F)2,2.318
mp-767575,Li2V(SiO3)2,1.8922
mp-767578,P4WO12,2.8551
mp-767580,Li4MnOF5,0.13239999999999996
mp-767584,Ti4Ni(PO5)4,0.13070000000000004
mp-767589,LiVF5,1.9594
mp-767590,Li2V(CO3)2,3.0208999999999997
mp-767591,MnFe3(PO4)4,1.4405
mp-767597,LiMnF5,1.9944
mp-767598,LiVPO5,1.2921
mp-767600,Li2MnF5,1.8449
mp-767601,Li6Mn2O5F2,0.8859000000000001
mp-767605,Li2VF5,2.488
mp-767609,LiVF5,2.2185
mp-767611,Li2V(CO3)2,3.0338
mp-767613,RbVBP2HO9,2.0693
mp-767617,LiVF4,2.3609
mp-767740,V(PO3)3,2.3138
mp-767743,LiFeSiO4,2.8325
mp-767744,Li2Ni(CO3)2,3.1111
mp-767747,LiVSiO4,2.5729
mp-771375,Li2FePCO7,2.4902
mp-771377,Li4AlCr3O8,3.2141
mp-771382,LiVBO4,0.39899999999999997
mp-771385,Na3MnPCO7,3.2776
mp-771388,MnP2O7,1.4175
mp-771404,Li2NiBO4,1.0517999999999998
mp-771405,NaLi2FePCO7,3.9699
mp-771407,Li3Fe(BO3)2,2.0792
mp-771412,Li2CoBO4,1.0322
mp-771413,Li3CrO4,0.6230999999999998
mp-771416,Na3Li3Mn2P2(CO7)2,3.3298999999999994
mp-771421,Na3Li3Mn2P2(CO7)2,3.4453
mp-771424,NaLi2FePCO7,3.835
mp-771428,Tb2WO6,3.6175000000000006
mp-771432,V4CrCoO12,0.09199999999999964
mp-771438,Na3Li3Fe2P2(CO7)2,3.7557
mp-771443,Tb2WO6,3.7685
mp-771446,Te3WO12,1.6396000000000002
mp-771447,Na3Li3Fe2P2(CO7)2,3.7141
mp-772304,Li2Ni(PO3)4,3.2317
mp-772318,Li2Cr2O7,2.4929
mp-772320,Li2CoSiO4,2.9163
mp-775334,V3Cu(PO4)4,0.2426000000000004
mp-775335,Li2Cr3FeO8,0.5367999999999999
mp-775339,Li2V(Si2O5)3,1.7923
mp-775340,Li2Cr(Si2O5)3,0.7241000000000002
mp-775343,LiCoPO4,2.4368
mp-775344,Li9(FeO4)2,0.04649999999999999
mp-775357,LiV2F9,1.9105
mp-775394,VFe(PO4)2,1.3628999999999998
mp-775396,Na2FePCO7,2.4461
mp-775400,NaMnPCO7,0.9261
mp-775437,V3P6WO24,1.1647
mp-775444,Ti3Mn2V(PO4)6,0.017100000000000115
mp-776815,LiFe2F5,2.5664
mp-776817,LiFeF5,1.2092000000000005
mp-776819,LiFeF5,1.1002999999999998
mp-776821,Li2MnF5,0.7715000000000001
mp-776828,Ti2Cr3Sb3O16,1.6584999999999996
mp-776836,BeCrO4,2.0973
mp-779993,Li2MnFe(BO3)2,3.105
mp-779996,LiFe2O2F3,1.9177
mp-779997,LiFe2OF5,2.2705
mp-779998,Li2FeO2F,2.0665
mp-780004,Fe5O3F7,0.8092000000000001
mp-780012,LiMnPO4,3.4347
mp-780016,V4OF11,1.0615
mp-780019,Li2MnFe(BO3)2,3.0617
mp-780024,LiMn(PO3)3,4.4927
mp-780026,LiMn4(BO3)4,0.3433999999999999
mp-780029,Na2CoO3,0.1431
mp-780039,Na2FePCO7,2.4651
mp-780044,LiCoOF2,1.0759999999999998
mp-780047,Li4FeO3F,2.6018
mp-780048,Ni3OF5,0.221
mp-780050,Hf2N2O,1.2310999999999996
mp-780086,Li8Mn(O2F)2,2.6208
mp-995192,RbBaSiHO4,3.9078
mp-995203,H6PbCI3N,1.7574999999999998
mp-1018806,MoSeS,0.6430999999999998
mp-2883,Sm2Sn2O7,2.6977
mp-2910,KAlF4,6.9377
mp-2918,YCuO2,2.647
mp-3047,MgGeO3,2.4744
mp-3056,NaTlO2,0.6210999999999998
mp-3211,Nd2SO2,2.8645
mp-3744,NaNbO2,1.3781999999999996
mp-3759,MgGeO3,3.6483
mp-3807,Al2CdSe4,1.2611000000000003
mp-382,Th3As4,0.2716000000000003
mp-383,Rb2Te,1.3732
mp-5096,CaSiO3,3.6753
mp-5132,YPO4,5.8009
mp-5146,Zn(RhO2)2,0.9324
mp-5259,RbAlF4,6.9365
mp-5558,NaReO4,3.6152
mp-5639,Mg2SiO4,4.7521
mp-5760,NdSF,1.2363000000000004
mp-5794,Zn(GaO2)2,2.3105
mp-5836,ThSiO4,4.8900000000000015
mp-5841,RbCuC2,1.8853
mp-5899,NdAlO3,4.353999999999999
mp-5924,MgSiO3,5.7928
mp-753152,LiCuCO3,1.6143
mp-753175,SrH2(SeO3)2,4.1695
mp-753179,Li2CuPO4,1.9750000000000003
mp-753183,CaH4SO6,5.346
mp-753233,Sb6O5F8,3.3506
mp-753387,Li2Cu3F8,0.3216
mp-753405,LiCuF3,0.4668
mp-753413,Ba2B2O5,3.8041
mp-753444,Li3BiS3,2.2692000000000005
mp-753445,Sb4O5F2,2.9422
mp-753472,NbAlO4,2.8606
mp-753477,Li3BiS3,0.989
mp-753486,BaCaI4,3.3934
mp-753515,Sb3O4F,2.3882000000000003
mp-753520,Li3BiS3,2.2534
mp-753532,Nb2O3F2,0.2096
mp-753544,Li2BiO3,1.266
mp-753548,Rb6Ti2O7,2.1781
mp-764340,Li2FeSiO4,2.9573
mp-764344,Li2FeSiO4,2.9306
mp-764346,Li2FeSiO4,2.9932
mp-764348,LiFeSiO4,2.9041
mp-764349,Li3MnO2F,1.8572
mp-764350,Li3MnF5,4.2484
mp-764351,LiMn2OF3,1.2007
mp-764359,CrOF,1.4246
mp-764360,LiVF4,2.064
mp-764361,LiMnF4,2.1745
mp-764367,V2OF5,1.6925
mp-764368,Li2Mn3OF6,2.4174
mp-764373,LiFeF3,3.0657
mp-764390,NaNi4H9(CO5)3,3.7179
mp-764396,Li3V2(O2F)2,0.8582999999999998
mp-764397,Li3V2(O2F)2,0.8928
mp-764399,RbCrH4(C2O5)2,3.1132
mp-764412,Li7Ni(O2F)2,0.6098
mp-764414,K2Li2NiO4,0.4063000000000001
mp-764424,Li3V2(O2F)2,0.9366
mp-764427,Li3V2(O2F)2,0.9199
mp-764432,V3(OF3)2,1.2807
mp-764440,Cr(PO3)4,0.058400000000000014
mp-764441,Li3V2(O2F)2,0.9481
mp-764442,Li3V2(O2F)2,0.9313
mp-764448,V2OF5,1.6192
mp-764451,Li3Fe4(BO3)4,1.8227
mp-764452,Li3Co2(SiO4)2,0.23029999999999995
mp-764454,LiMnV(P2O7)2,1.3469000000000002
mp-767751,Li7Mn(O2F)2,1.6063
mp-767752,Li3V5O10,0.6398999999999999
mp-767753,Li2Fe2Si8O19,3.5081000000000007
mp-767755,Li3FePCO7,4.2981
mp-767756,V2Bi4O11,2.1573
mp-767769,LiVF5,1.817
mp-767776,P4WO12,2.9531
mp-767777,Li2V(Si2O5)3,2.041
mp-767787,LiVSiO4,2.1243000000000003
mp-767789,LiV(PO4)2,0.9176
mp-767793,Li8MnO5F,0.7027000000000001
mp-767795,LiFeP2O7,2.4515
mp-767796,MgV3O8,1.8235
mp-767800,Li2Mn(PO4)2,0.6995
mp-767802,Li2V(CO3)2,2.8202
mp-767803,P2WO8,2.9566
mp-767805,Zr11VO24,1.7651000000000003
mp-767806,VO2F,2.5329
mp-767811,CoH4SeO5,2.7172
mp-767813,Ni(PO3)3,1.0502999999999998
mp-767814,LiVSiO4,0.6395
mp-767816,LiMn2(PO5)2,0.005599999999999827
mp-767819,LiCoP2O7,0.8592
mp-767824,Li2Mn(BO3)2,1.4258000000000002
mp-767826,Li2FePO5,2.1455
mp-767831,LiFe2(PO4)2,1.5931000000000002
mp-767834,Sr2MnCO3F5,1.3728
mp-767836,Mn2CoO4,0.2603999999999997
mp-767838,LiFeSiO4,2.7268
mp-767846,Sr2FeCO3F5,2.4958
mp-767850,LiFeSiO4,2.8705
mp-767851,Li2SiNiO4,3.2426
mp-767854,Li3VPCO7,3.1749
mp-767855,LiMn2(PO4)2,0.14159999999999998
mp-767860,Li2SiNiO4,2.9164000000000003
mp-769274,LiCuPO4,0.0259999999999998
mp-769278,LiCuPO4,0.21829999999999994
mp-769285,Ho3ReO8,1.7169
mp-769290,LiCuPO4,0.20250000000000007
mp-772332,Nb3Co(PO4)6,2.1091
mp-772340,Tm2WO6,2.8443
mp-772346,Tm2(WO4)3,3.904700000000001
mp-772349,V5(BO5)2,0.4389000000000003
mp-772362,TiMn3(PO4)4,0.009399999999999851
mp-772372,Sm2WO6,3.5725
mp-772376,Ni(IO3)2,2.8257000000000003
mp-772381,V2SiO4,1.5873
mp-772382,Li2FeSi3O8,3.0409
mp-772393,NbFe(PO4)2,0.09030000000000003
mp-772396,Li2Cr2O7,2.3269
mp-772399,NaVSiCO7,1.8401
mp-772410,Ti(SO4)2,2.2732
mp-772423,Ni(SO4)2,0.025100000000000008
mp-772424,RbLi2V2(BO3)3,2.4291
mp-772427,Li3Fe(PO4)2,2.5233000000000003
mp-772430,Li2AlFeO4,2.1542
mp-772435,Li3Al2FeO6,2.6608
mp-772436,Li2AlFeO4,3.1814
mp-772437,V3Bi2(PO4)6,0.9702
mp-772438,LiCoPO4,2.8127000000000004
mp-772441,Y2W2O9,2.3369000000000004
mp-776842,SrLi4NiO4,2.6358000000000006
mp-780089,Li3MnSi2O7,1.4716999999999998
mp-780097,Fe3(OF2)2,0.26469999999999994
mp-780099,Fe2OF3,1.3708
mp-780114,LiVSiO5,2.0535
mp-780117,Li4CoO3F,1.3904
mp-780123,LiMn3(BO3)3,0.23540000000000005
mp-780125,LiCr2P3O13,1.2957999999999998
mp-780128,Fe2OF3,1.3111
mp-780129,Fe2OF3,1.4514999999999998
mp-780146,Fe3(OF2)2,1.4056
mp-780147,LiMnSiO4,0.9949000000000005
mp-780149,Li2Mn3(BO3)3,0.0222
mp-780152,LiFeOF2,1.7902
mp-780153,Li8FeO5F,2.7133000000000003
mp-780156,Li5Mn6(BO3)6,0.7233
mp-780158,Cr4OF11,0.8343
mp-780163,LiVP4(H2O7)2,2.1292
mp-780169,Hf2N2O,1.1956999999999995
mp-780176,Fe5O3F7,1.2638
mp-780178,Li8TiMn3(PO4)6,1.5922
mp-780183,Fe2OF3,1.2707000000000002
mp-780192,Li5FeO4,2.5873
mp-780195,LiVP3HO10,2.7383
mp-780196,LiMnSiO4,0.4094
mp-780198,LiMn2(BO3)2,0.006799999999999917
mp-780200,LiFePH2O5,3.6175
mp-780213,Ni3OF5,0.4028999999999999
mp-972112,Sr2MgUO6,2.1157
mp-972117,SrTeO3,3.606100000000001
mp-972120,Sr(GaAs)2,0.1538999999999997
mp-972216,Sr2SmSbO6,3.6039
mp-974035,Pb3I2(Cl2O3)2,3.2548
mp-995216,RbSrSiHO4,4.0584
mp-996948,CaCr2O4,1.1068000000000002
mp-997023,CuBrO2,0.8900999999999999
mp-3236,Pr2SO2,2.8586000000000005
mp-5693,NaCrS2,0.9843000000000002
mp-638206,P3CN4Cl7,3.7593
mp-638900,Si3O7,0.1031000000000004
mp-639335,MnSbSe2Br,0.18320000000000025
mp-639748,SiO2,5.7969
mp-640556,SiO2,5.5713
mp-640747,Sr3Nb2CoO9,0.1984999999999999
mp-640836,Ca2Ta2O7,3.4624
mp-641097,UTl2(MoO5)2,2.2166
mp-641100,UTl2Cr2O10,1.9753
mp-642578,K2Mn2(SO4)3,0.224
mp-643029,NiSeO3,3.0748
mp-645338,Sm(BO2)3,5.3245000000000005
mp-645405,Rb6LiPr11Se12(Cl4O9)4,3.0737999999999994
mp-645842,SrAl2(SiO4)2,0.25710000000000033
mp-646431,SrCo2Te3(ClO4)2,2.6334000000000004
mp-646605,SrNi2Te3(ClO4)2,3.1903
mp-652781,Sr10Cu5Bi10O29,0.08539999999999992
mp-667742,SbSe5F6,0.023900000000000005
mp-676312,YbBiO3,0.3542000000000001
mp-676411,Sr9U9O34,0.004599999999999938
mp-676524,Tb7(CuTe4)3,0.3644000000000007
mp-676727,Sr18ThCl40,2.2611
mp-677596,Sn(BiTe2)2,0.1495999999999995
mp-680292,Tm7Cl15,0.08089999999999975
mp-680298,Rb3Ta5O14,3.6842
mp-680356,ZrN6O17,1.568
mp-680717,Tm(BO2)3,5.7593000000000005
mp-680944,Nb2O5,1.6138
mp-685174,In2Br3,2.3003
mp-685315,CaAs3F15,0.9034
mp-705637,NiPO4,1.3737
mp-705778,Mn3(AgO2)4,0.4964
mp-705803,Ti7Fe13O30,0.6956999999999995
mp-705872,Ni17(As3O16)2,2.4849999999999994
mp-705887,Li2TiCr(PO4)3,2.4212
mp-705957,Fe2CoO4,0.5431999999999997
mp-706408,NdP3(H4O5)3,4.3711
mp-706449,P2H6N2O5,0.5178
mp-706525,NaAl3P2(HO3)4,5.4975000000000005
mp-706529,Co5RuO8,0.005199999999999871
mp-706594,U2H14S2O19,2.1173
mp-706597,Al2FeO4,2.8188999999999997
mp-706601,ZnH16C4S4(N5O3)2,0.19230000000000005
mp-706676,KPH3NO3,4.3165
mp-706688,VH8C10N3Cl4,1.5295999999999998
mp-706714,Li9Mn15O32,0.5088999999999997
mp-706937,B9H11,3.319