task_id,pretty_formula,band_gap
mp-672673,In2Se3,0.9081
mp-672675,SNClO4,1.2849
mp-672695,KAgCO3,1.5687000000000002
mp-672705,YbS2,1.2066999999999997
mp-672958,LiSb(PO3)4,4.0474000000000006
mp-672959,Li2Cu(PO3)4,0.8002999999999998
mp-672979,LiBiP2O7,4.4057
mp-673059,LiSbP2O7,3.9330000000000003
mp-706627,ZnH6C2(NO)4,4.6747
mp-706642,H3ClO5,3.4848
mp-706912,K2HS2NO6,5.0641
mp-706973,H4CS(NO)2,2.9683
mp-706976,PH4N(OF)2,5.1708
mp-706979,PH6N3O,4.6727
mp-707014,P2H10S4N2O,2.5304
mp-707039,ZnH20S2(NO7)2,0.37449999999999983
mp-707041,PH10SN3O2,3.8755
mp-707104,H4N2O3,3.1871
mp-707190,K2SnBr6,1.5757
mp-707206,TeP6H30(NO4)6,3.6423
mp-707250,CaZn2(H5O4)2,3.303
mp-755856,Mg2SnO4,2.6409
mp-755864,TiCu(PO4)2,0.2059000000000002
mp-755868,LiCu5(PO4)2,0.4882999999999997
mp-755880,WN2,0.13649999999999984
mp-755881,Ba2Ti6N2O11,1.8813
mp-755883,NaDyO2,4.0169
mp-755892,SrLa2Cl8,3.8396
mp-755894,Li2O,5.2422
mp-755902,Lu(HO)3,3.596
mp-755911,Hf2N2O,0.08630000000000049
mp-755948,Tm2TiO5,2.9529000000000005
mp-755969,Sr3La4O9,3.0779000000000005
mp-755988,Hf3N4,0.9216000000000006
mp-755991,AgBrO4,1.0812
mp-755998,Zr3N2O3,2.6600999999999995
mp-756007,Li3Cu3(PO4)2,0.6345999999999998
mp-756029,Zr2N2O,2.0129
mp-756034,NaSmO2,3.9782
mp-756048,TbErO3,4.5065
mp-756050,TaCuO3,1.5612
mp-756054,Zr2N2O,0.19730000000000025
mp-756063,RbNbO3,2.8197
mp-756073,Rb2ZrO3,3.2835
mp-756076,TbTaO4,3.6704
mp-756086,Li5BiS4,1.5786000000000002
mp-756096,Hf2N2O,2.4565
mp-756098,BaSrI4,3.6126
mp-756103,Y2HgO4,2.0445
mp-756106,TbCeO4,0.15639999999999965
mp-756118,TbSmO3,4.456200000000001
mp-756127,TaNbO5,2.3307
mp-756131,Sr2CaI6,3.6483
mp-756134,ZrSeO,0.5998000000000001
mp-756148,Sm2Pt2O7,1.1981000000000002
mp-756168,Li2Nb4O11,2.5366
mp-756182,RbHO,3.0781
mp-762687,LiFeSiO4,1.8255
mp-762692,Li5Fe11O16,0.3640999999999997
mp-762693,Li3TiFe3O8,2.111
mp-762698,LiMn(PO3)3,4.1212
mp-762703,LiFeSiO4,2.6304
mp-762705,Li3FeSiO5,2.1731
mp-762707,Li3Fe(PO4)2,2.241
mp-762710,Li3VFe3O8,1.3840000000000001
mp-762715,Li2Mn3(P2O7)2,3.4947
mp-762720,Li2Mn2P2O9,0.7149000000000001
mp-762724,LiMn(PO3)3,4.2941
mp-762746,Li2Fe2SiO6,2.2232
mp-762765,Li2FeSiO4,3.2064000000000004
mp-762772,LiVF5,1.9058
mp-762774,LiMnPO4F,0.9675
mp-762780,LiMnP2O7,0.3032999999999999
mp-762781,LiVF5,2.0682
mp-762782,Li3VF5,2.3684000000000003
mp-762785,LiVF5,2.0398
mp-762791,LiCrPO4F,1.9798
mp-762792,LiVF5,2.2276
mp-762793,Li5VP2(O4F)2,2.4688
mp-765623,V3O5F3,1.0141999999999998
mp-765658,V2OF5,1.5209
mp-765665,VP2H8(NO4)2,2.5778
mp-765667,Li4Co7(OF7)2,1.9332
mp-765668,V2O3F,1.2359999999999998
mp-765673,NaMnO2,1.1676000000000002
mp-765678,Li3TiV3O8,1.5090000000000001
mp-765683,Mn6OF11,1.2638
mp-765687,VOF,1.2552
mp-765690,Ni3OF5,0.5531
mp-765693,Mn6O5F7,0.16510000000000002
mp-765695,V4(OF3)3,1.6445
mp-765699,Li3Fe(PO4)2,2.4323
mp-765702,Mn6O7F5,0.059900000000000064
mp-765706,Li2VFeO4,0.9488000000000004
mp-765708,V2OF5,1.7294
mp-765709,Li5Ti2Fe3O10,1.4627
mp-769693,Li2FePCO7,2.0804
mp-769696,Li2FeBO4,2.5776
mp-769698,Li2FeBO4,1.3316
mp-769701,Li5Fe2P2(CO7)2,1.3572
mp-769702,LiMn4O8,0.22219999999999995
mp-769704,Li3MnPCO7,3.7566
mp-769708,Li3MnPCO7,3.6579
mp-769718,Na5LiFe2P2(CO7)2,3.5831
mp-769720,La2Ti3O9,2.5817
mp-769729,Li5Fe2Co3O10,0.8073999999999999
mp-769731,VBO4,2.2086
mp-769732,Li3Cr(BO3)2,2.0741
mp-769734,ScFeO3,1.5712000000000002
mp-769735,Li3MnPCO7,3.5753
mp-769738,Li3Al2VO6,2.1698
mp-769741,Li4Cr3CoO8,0.7871999999999999
mp-769742,Li4CrFe3O8,1.7148
mp-769744,Li4Cr3CoO8,0.8529
mp-769747,Li3MnO3,2.4972000000000003
mp-769750,Li4Cr3CoO8,0.5846999999999998
mp-769751,RbFeO2,2.0393
mp-769752,Li4Cr3FeO8,2.4395
mp-769753,Li4CrFe3O8,1.7401
mp-769754,Li2AlNiO4,1.3815
mp-769755,Li4Cr3FeO8,2.3412999999999995
mp-769758,Li4Cr3FeO8,2.3623000000000003
mp-769759,Li4Cr3GaO8,3.0916
mp-769760,Li2AlCoO4,1.7719999999999998
mp-769764,MnPO4,0.1517
mp-769765,Li2AlVO4,2.1881
mp-769766,Li3CrO4,0.5812000000000002
mp-769771,Li2CoGeO4,2.2966999999999995
mp-769772,Li2CrO3,0.8223000000000003
mp-769774,Rb3FeO3,1.9968
mp-769775,Li2Cr2O7,2.4081
mp-769777,NbVO4,1.3470000000000004
mp-772673,LiNiPO4,3.3278000000000003
mp-772676,Sr2WO5,3.1883000000000004
mp-772677,LiFePO4,3.2872
mp-772681,Cr(PO3)2,2.3932
mp-772683,CrFe(PO4)2,1.8281
mp-772685,CrPO5,0.218
mp-772693,NaVCSO7,2.0813
mp-772700,LiCrPO4,1.9808
mp-772724,SnBO3,2.3724
mp-772744,Tm2P4O13,5.369199999999998
mp-772749,Ti17(NO4)6,0.005100000000000549
mp-772755,Li3CuPCO7,0.15739999999999998
mp-772758,Sm2Zr2O7,3.9634
mp-772760,Dy2Zr2O7,4.0703000000000005
mp-772769,Na2Ge2O5,3.1185
mp-772783,Li2Mg3Ti6O16,3.2880000000000003
mp-777058,LiV6O7F5,0.9873000000000004
mp-777066,Li2MnP2O7,4.0615
mp-777067,Li2MnP2O7,3.1415
mp-777068,LiMnP2O7,0.8744999999999998
mp-777076,Li2TiNiO4,1.6432999999999995
mp-777077,LiV4OF11,1.0343
mp-777079,LiNiBO3,3.2764999999999995
mp-777080,VOF3,1.8397
mp-777081,LiV4O5F7,1.0295
mp-777082,TiNi3Sn2(PO4)6,1.9098
mp-777083,LiV6O7F5,1.3779
mp-777084,LiV2OF5,1.5573
mp-777086,LiV2OF5,1.2137
mp-777088,LiV2OF5,1.8395
mp-777089,LiV6O7F5,1.0025999999999995
mp-777093,LiMnP2O7,1.3490000000000002
mp-777094,Li3LaNiO4,2.6291
mp-777096,LiFeF4,3.1962
mp-777100,VOF3,1.8411
mp-777105,LiFeB2O5,2.0172
mp-777120,Na5Cr2P(CO4)4,0.04079999999999995
mp-777137,BaLi2NiO3,2.3059000000000003
mp-777138,LiVP2HO8,1.3892
mp-777139,Li2Mn3(BO3)3,0.0605
mp-777144,Ti3Cu2Te(PO4)6,0.5432999999999999
mp-777145,Li3V4(OF3)3,1.4939
mp-777150,VOF3,3.0568
mp-777151,LiFe2F7,3.6311
mp-849732,LiSb(TeO4)3,1.3328000000000002
mp-849754,Li2Cu(PO3)4,0.1785000000000001
mp-849937,Na3NiO3,0.03210000000000002
mp-849944,LiV4OF11,0.6551
mp-849950,Mn3(OF2)2,0.015700000000000047
mp-849953,Li2Mn3VO8,0.5
mp-849971,LiVF4,2.2211
mp-849982,Ta2CrNO5,1.3552999999999995
mp-849986,LiV6O7F5,1.3164999999999996
mp-850028,Li2Mn3(BO3)3,0.6359999999999997
mp-850069,Li3Mn4(BO3)4,0.3268000000000002
mp-850070,MnOF,0.006500000000000172
mp-850071,LiMn3(BO3)3,0.16779999999999995
mp-850074,Na3MnO3,0.9899
mp-850077,LiMn2(BO3)2,0.3031000000000001
mp-850084,Co3OF5,0.9136
mp-850087,V(SO4)2,1.3168
mp-619475,RbFeF4,2.8768
mp-619486,Rb2Hg(CN)4,5.747999999999998
mp-619546,Cs2HgBr4,2.479
mp-619661,Pb3(IO)2,2.2335
mp-619928,Zr(Se2Cl3)2,1.318
mp-620054,ReC5BrO5,2.3911
mp-620058,PbN6,2.2802000000000007
mp-620369,TaAg7S6,0.5110000000000001
mp-620404,SnC2(SN)2,2.4287
mp-620652,NaSr2AlP3,0.31220000000000026
mp-621092,Tl2Pt(CN)4,2.5584
mp-621825,Y6Pb8OF32,4.0785
mp-621926,Na2TiSiO5,3.1096000000000004
mp-621945,La2Ge2O7,3.7144
mp-622020,P(CN)3,4.4681
mp-673071,Li2SnP2O7,3.7003
mp-673073,LiSbP2O7,4.0558
mp-673098,LiBi(PO3)4,4.8039
mp-673118,Sn3(P2O7)2,2.2445000000000004
mp-673119,LiSn2P3O10,3.7549
mp-673134,LiSn2P3O10,2.898
mp-673144,LiSnP2O7,0.12429999999999986
mp-673168,SiO2,3.3915
mp-673633,In2S3,1.0946999999999996
mp-673644,Tb2S3,1.8721
mp-673650,Lu2Se3,1.7495999999999996
mp-673705,SnPSe3,0.35749999999999993
mp-673808,Mg2SiO4,3.8639
mp-673845,NbO2F,1.9496
mp-674159,Rb2CrCl4,0.5269999999999997
mp-674328,Zn(InS2)2,1.4023999999999996
mp-674333,Na3PO4,3.9099
mp-674334,Ca2SiO4,4.3743
mp-674339,Tl6PbI10,1.2149
mp-674352,TaAg7S6,0.3199000000000001
mp-674359,Tl3PbCl5,3.3898
mp-674366,Tl3SiF7,3.6852
mp-674373,Rb2U2O7,1.6448
mp-674395,Tl5SnF9,2.9199
mp-674463,AlHO2,4.7101
mp-674492,Na2U2O7,1.5831999999999995
mp-674508,RbPbF3,3.7915
mp-674513,Dy3TaO7,2.0598000000000005
mp-674646,Ca4Bi6O13,1.1427999999999998
mp-674804,Sm2PbSe4,1.6411000000000002
mp-674849,TlBiF4,2.2336
mp-674993,KPb2Cl5,3.3836
mp-707274,H13Se2N3O8,3.6556
mp-707324,PH6SN3,4.1777000000000015
mp-707398,Mg2PHO5,2.3981000000000003
mp-707441,SnH12Pt(N2Cl3)2,1.834
mp-707473,InP(H2O3)2,3.6671
mp-707765,TeH12(Cl2O3)2,3.3771
mp-707774,Mg3B2H9SO13F,0.6781999999999999
mp-756190,Cd(GaO2)2,1.2302
mp-756194,Tm4(B2O5)3,5.0617
mp-756205,ScBiO3,2.7215
mp-756214,YAlO3,4.9586000000000015
mp-756224,TbGdO3,3.0933
mp-756228,SrLaCl5,3.738
mp-756238,Sr2CaI6,3.9626
mp-756241,PrBiO4,0.7488999999999999
mp-756245,BaYI5,2.1035
mp-756246,NdZrO3,0.05090000000000039
mp-756251,Ba2LaCl7,3.3138999999999994
mp-756270,Lu4(B2O5)3,5.2305
mp-756276,CeHfO4,1.7957
mp-756281,TmAlO3,5.7744
mp-756290,TbGaO3,3.6356
mp-756297,ZnIn2O4,1.1790999999999996
mp-756318,Al2CoCl8,0.3186
mp-756325,La2(SiO3)3,4.4651000000000005
mp-756339,Tm2TeO6,2.45
mp-756342,AgBrO4,0.8743000000000001
mp-756347,Y2Pt2O7,1.4572000000000005
mp-756354,SrSc2O4,2.7653
mp-756372,Rb2MgO2,2.2799
mp-756400,NdBiO4,0.5653000000000001
mp-756402,YHO2,4.6373
mp-756406,Li2Zr2O5,3.6528
mp-756435,Sr3Nb4O13,0.988
mp-756437,SrLaBr5,3.0472
mp-756439,SrLaBr5,2.7305
mp-756443,Er2TiO5,3.0242
mp-756444,Ca2Ti6N2O11,2.0854000000000004
mp-756451,CaPbI4,2.8871
mp-756452,SmDyO3,4.5279
mp-756457,ErNbO4,3.4706
mp-756460,Ga2HgO4,1.3150000000000002
mp-756468,CaY2O4,3.1247
mp-756473,WSCl4,1.9545
mp-756505,Cs3ScO3,2.7287
mp-756509,BaLaI5,2.6608
mp-762797,Li3VF5,2.585
mp-762799,LiFeSiO4,2.9793000000000003
mp-762801,Li2MnPO5,1.4040000000000001
mp-762803,MnV4O12,1.3822
mp-762804,LiFeSiO4,2.5507
mp-762806,Li2V2FeO6,0.1943000000000001
mp-762809,LiNiSnO4,0.31650000000000045
mp-762813,Li2Mn5(FeO6)2,0.6372
mp-762817,LiMn2(PO3)5,4.1771
mp-762824,Li2MnPO4F,3.6651
mp-762838,Fe4O5F3,0.2461
mp-762839,LiFe4(PO4)3,3.1316
mp-762843,LiFeP2O7,1.9497
mp-762850,Li2MnNi3O8,0.12990000000000013
mp-762851,Li3Co2(SiO4)2,0.3763000000000001
mp-762852,Na2P2H12O11F2,5.3551
mp-762863,Fe3OF5,0.9538000000000002
mp-762866,Li3MnCo3O8,0.3296999999999999
mp-762869,LiMn2O4,0.617
mp-762871,Fe2CuAs2(HO5)2,0.7757000000000001
mp-762873,Fe3OF5,1.7313
mp-762880,LiCoSiO4,1.4218000000000002
mp-762883,LiCoSiO4,0.5109000000000004
mp-762886,LiCoSiO4,1.3741
mp-765713,Li8Co(O2F)2,2.2084
mp-765719,Mn6OF11,0.3833
mp-765727,NaV2O5,0.4181999999999999
mp-765730,Li5Co7O3F13,1.804
mp-765732,VP6(WO8)3,1.6373
mp-765734,Na2NiO2,2.0058
mp-765735,VO2F,1.0682
mp-765737,V4(OF3)3,0.5709000000000001
mp-765739,VOF,0.7756999999999996
mp-765743,Li2CrFeO4,1.6024000000000005
mp-765748,NaVPO5,2.4527
mp-765749,Ni3OF5,0.5717
mp-765752,Na5VO5,2.447
mp-765753,NaMnO4,1.9123
mp-765758,Li3MnFe3O8,1.5508000000000002
mp-765759,Li5MnO3F,2.0828
mp-765764,V4O5F7,0.5571999999999999
mp-765768,LiCo2OF3,1.4698000000000002
mp-765770,VOF3,3.4485
mp-765772,V3OF11,1.6720000000000002
mp-765773,V3O5F3,0.8623000000000001
mp-765774,Ni3OF5,0.09420000000000006
mp-765777,V3O5F,0.9374000000000002
mp-765781,LiVF5,1.7843
mp-765782,VF5,3.1935
mp-765784,Li2CrCoO4,0.010699999999999932
mp-765790,LiV(OF)2,2.4867
mp-769785,ScVO3,1.5053
mp-769786,Li4CrO4,2.0888
mp-769790,VGeO4,0.9819
mp-769799,Na2FeO3,0.05099999999999999
mp-769809,Gd3TaO7,2.6138
mp-769810,Sr3WO6,3.5804
mp-769812,Tb2Mn2O7,0.8691
mp-769813,LiMnBO3,2.8469
mp-769815,Sr3W2O9,3.5566
mp-769816,Ca3W2O9,3.4497
mp-769824,LiCoBO3,2.4415000000000004
mp-769825,LiFeBO3,2.8957
mp-769828,LiCoBO3,2.6172999999999997
mp-769839,MnP2O7,0.3533
mp-769840,CoPO4,0.9819
mp-769845,LiLa4MnO8,1.6309000000000005
mp-769850,ZrCoO3,1.7275
mp-769855,SrCrO3,0.7904
mp-769857,VGaO3,1.4157000000000002
mp-769860,Li2Co3NiO8,0.9328000000000004
mp-769861,Gd2V2O7,1.3003999999999998
mp-769866,Ti2Ni3Te3O16,0.5627999999999997
mp-769867,ZrCrO4,0.5910000000000002
mp-772820,SrLu2O4,3.8741
mp-772823,Y2HfO5,3.8596
mp-772833,Y2HfO5,3.9515
mp-772863,Na2Ge2O5,3.0053
mp-772864,Rb2Ge2O5,2.7725
mp-772890,Np(SeO3)2,0.02210000000000001
mp-772900,Sm2TeO6,3.0346
mp-772919,Tm4(B2O5)3,5.683299999999999
mp-772939,Li5Cu(PO4)2,2.0388999999999995
mp-772972,Li2Ti2O5,3.7177
mp-772993,Li2Ti7Nb6O30,2.2457000000000003
mp-773003,Er2P4O13,5.3688
mp-773007,LiCu5(PO4)2,0.2656000000000001
mp-773011,Dy2Ge2O7,3.5623
mp-773016,Lu2P4O13,5.343999999999999
mp-773067,Er3TaO7,3.5103000000000004
mp-773068,LiZr2(PO4)3,4.2911
mp-777186,Na2CoO3,0.7799
mp-777188,VOF,0.8874
mp-777191,LiFe2OF5,1.9051
mp-777194,Li2MnVP2(O4F)2,0.3666
mp-777196,LiV4OF11,0.9826
mp-777197,Li2MnVP2(O4F)2,0.5015999999999998
mp-777198,LiFe2OF5,2.4943
mp-777200,Li2MnPO4F,3.6683
mp-777210,LiFe2OF5,1.7394999999999998
mp-777211,Mn2OF3,0.4899
mp-777212,Li2MnVP2(HO5)2,0.2936000000000001
mp-777220,LiFe3(OF3)2,1.5802999999999998
mp-777223,V3OF11,1.5278
mp-777230,P8W3O29,1.9217
mp-777235,V5CuO12,0.4964000000000002
mp-777239,Mn3(O2F)2,0.10400000000000008
mp-777240,Li2FeO2F,2.3225
mp-777242,LiFe2OF5,2.0388
mp-777247,Li2Mn3(BO3)3,0.26200000000000023
mp-777248,LiFeF3,3.0058
mp-777250,Li2Mn3(BO3)3,0.2256999999999998
mp-777251,Li2Mn3(BO3)3,0.18710000000000004
mp-777252,LiFeF4,3.3866
mp-777255,LiFeBO3,2.6311
mp-850089,Ti3Co2Ni(PO4)6,0.02210000000000001
mp-850094,LiMn(PO3)4,0.7981
mp-850097,LiMn3(BO3)3,0.0827
mp-850098,Fe10O9F11,0.8041999999999998
mp-850101,LiV6O7F5,1.0366000000000004
mp-850106,Li3(NiO2)4,0.03010000000000002
mp-850112,LiMn2(PO4)2,0.4289000000000001
mp-850118,Cr(PO3)2,2.1596
mp-850119,Li3FePCO7,3.9591
mp-850133,Fe10O9F11,0.9217000000000002
mp-850138,LiMnP2O7,0.4616000000000002
mp-850139,LiCo3OF5,2.6377
mp-850141,Mn2OF3,0.050899999999999945
mp-850149,LiVF5,1.736
mp-850158,V3OF11,1.5725
mp-850166,Li5Mn6(BO3)6,0.1818
mp-850171,Li2Mn3(BO3)3,0.0524
mp-850172,Li2Mn3(BO3)3,0.13670000000000004
mp-850175,Li2MnVP2(HO5)2,0.4617
mp-850193,HoBO3,5.367000000000001
mp-850213,Yb4Br6O,4.2517999999999985
mp-850223,Fe3OF5,1.2536999999999998
mp-622116,ReOF4,0.9318
mp-622170,V(SeO3)2,1.9892
mp-622171,VSb2O5,2.5365
mp-622198,Ti3(BiO3)4,1.6328000000000005
mp-622213,GeS2,2.1396
mp-622217,V2CoO6,1.5745000000000002
mp-622258,RbV2SbO8,2.7554000000000003
mp-622278,TlV2SbO8,2.7329
mp-622497,V3O5,0.9892999999999996
mp-622602,NaMoAsO6,2.6293
mp-622613,Rb2FeC5N6O,2.7914
mp-622619,UVAgO6,1.6036
mp-622640,V3O7,0.996
mp-623024,TiCdF6,4.3747
mp-674999,La2Zr2O7,2.2255000000000003
mp-675010,CsHgCl3,2.0663
mp-675067,Sm2ZnS4,1.3771
mp-675068,Nd2Zr8O19,2.3221
mp-675100,Nd2PbSe4,1.6597000000000004
mp-675106,TmPaO4,3.203199999999999
mp-675118,Y2Th8O19,2.8559
mp-675128,Sc4Ti3O12,2.7582000000000004
mp-675146,Pr2PbSe4,1.6586999999999996
mp-675152,NdPb8F19,3.5796
mp-675161,NaYF4,7.206200000000001
mp-675172,TaAlO4,1.8382000000000005
mp-675199,NaPrS2,2.0519
mp-675214,Rb2Bi3F11,3.8503
mp-675215,Mg2SiO4,3.43
mp-675230,NaLaS2,2.4308
mp-675244,Yb(NdS2)2,2.0395
mp-675250,KBi2F7,3.5810000000000004
mp-675283,TlPF6,6.0343
mp-675299,Ca2SiO4,3.7086
mp-675300,Ho2Zr2O7,2.8437999999999994
mp-675342,NdPb4F11,4.4389
mp-675372,CaZr4O9,2.2314000000000003
mp-675395,H(CO)2,2.8322
mp-675406,Yb(HoS2)2,2.1723
mp-675424,Ba2P2O7,4.5725
mp-675430,Sm4Ag2Se7,1.5147
mp-675464,CdIn2O4,0.0007000000000001451
mp-675492,SrLa5F17,6.0367
mp-707838,Ca3Be2P4(HO2)10,5.3191000000000015
mp-707839,SiH14(O2F3)2,6.9743
mp-707841,PH6NO3,6.2860999999999985
mp-707866,SrZnH6O5,3.6372
mp-707940,ZrCd2H12(O3F4)2,4.4923
mp-707958,PH9C2N4O5,4.9033
mp-708035,NaZn(H3O2)3,3.4801
mp-708089,H30S2O21,0.8025
mp-708135,YH16C4N9O16,1.9535
mp-709066,Rb4LiH3(SO4)4,5.0068
mp-756550,TmAsO4,3.577500000000001
mp-756560,Li2Ti3O7,2.4853999999999994
mp-756580,SrLu2O4,3.3411
mp-756587,TiO2,2.3165
mp-756593,Ta3(OF)5,2.197
mp-756597,Li2HfO3,4.6913
mp-756633,Li3BiO3,2.7094000000000005
mp-756637,Ba3GeO5,2.5962
mp-756639,Li2NbOF5,3.6859
mp-756646,SrLu2O4,3.5547000000000004
mp-756654,SbOF,2.7582000000000004
mp-756666,BaCaI4,3.9106
mp-756686,AlGaO3,2.6071
mp-756703,CdSeO4,1.5661999999999998
mp-756705,YAlO3,4.0582
mp-756732,Rb3Sn4Au,0.5680999999999998
mp-756750,Dy2TiO5,3.0481
mp-756755,Li3Nb3TeO12,2.1154
mp-756762,TbTmO3,4.568899999999998
mp-756795,Rb3PbO3,0.11729999999999975
mp-756798,Sr2CaI6,3.8712
mp-756804,TePHO5,2.1732
mp-756811,Li4TiS4,2.1619
mp-756812,Rb3ErO3,2.157
mp-756818,LiSiBiO4,3.2515
mp-756850,LuAlO3,3.7125
mp-756854,Sr2LiNb3O10,1.7679
mp-756868,Rb3DyO3,1.9797
mp-762899,Li2Ni2SnO6,0.5133999999999999
mp-762902,Li2(NiO2)3,0.3108
mp-763182,Li2VO2F,1.1566
mp-763183,LiMnF4,2.2336
mp-763185,Li2CrCo3O8,0.4008000000000001
mp-763187,Li2Mn3F8,3.357
mp-763189,Li2CoO3,1.1537
mp-763190,Li2VO2F,0.8643000000000001
mp-763191,LiMnF3,3.4080000000000004
mp-763192,V2OF5,1.6801
mp-763193,Li2VO2F,0.7241
mp-763194,LiMn2(BO3)2,0.5031000000000001
mp-763198,Li2VO2F,1.1979000000000002
mp-763203,Li2VO2F,0.9411
mp-763205,Li2VO2F,0.9741
mp-763206,Co3OF5,0.8431
mp-763207,FeOF,0.7429999999999999
mp-763209,Li2VO2F,1.0057
mp-763211,V3O5F,0.2267000000000001
mp-763212,Li2VO2F,1.0705
mp-763213,FeOF,1.6225
mp-763215,Ni3OF5,0.7583
mp-763216,Mn3(O2F)2,0.08700000000000019
mp-763217,LiNiPO4,3.9529
mp-763219,FeOF,0.4380999999999999
mp-763221,FeOF,0.3906000000000001
mp-763225,Li2VO2F,0.2730000000000001
mp-763228,Cr4OF11,0.9174
mp-763229,VOF,0.9420999999999996
mp-763232,Cr4OF11,0.9226
mp-763243,Co3(OF2)2,0.16199999999999992
mp-763247,LiVSiO5,1.7594999999999998
mp-763249,Co3OF5,0.7453
mp-763250,Co(PO3)3,1.1421
mp-763253,LiCoSiO4,1.4737999999999998
mp-765793,Li2Mn(PO4)2,0.7448999999999999
mp-765797,ZnNi9O10,2.0625
mp-765808,LiNi2OF3,2.4959
mp-765815,CoSnO3,0.9832
mp-765817,LiNiPO4,3.3826
mp-765818,ZnCoO3,0.21309999999999985
mp-765819,Li2VO2F,1.7723000000000004
mp-765822,LiV2O2F3,1.4253
mp-765830,Li3VF5,2.4749
mp-765831,Li7V(O2F)2,0.6600000000000001
mp-765842,LiMnPO4,3.3736
mp-765845,LiVF3,2.2313
mp-765850,NaV2O5,0.9285
mp-765851,LiVF3,1.9761
mp-765853,LiV2O2F3,1.3772000000000002
mp-765854,Li3V2F12,0.03639999999999999
mp-765855,Li2VOF3,1.6465
mp-765857,LiCr(SiO3)2,2.9517
mp-765858,Li2Ni3(P2O7)2,3.5965000000000003
mp-765860,Fe2CoO4,1.2323
mp-765862,Li8Ni(O2F)2,3.1612
mp-765864,TiCo3O8,1.1234
mp-765865,CrCo3O8,0.7265000000000001
mp-765868,TiWO4,0.5586000000000002
mp-765871,LiMnPO4,3.2177
mp-769873,Li3MnF6,1.6835
mp-769878,Rb2Fe2O3,1.0686999999999998
mp-769879,LiVOF3,1.8378
mp-769880,LiVOF3,2.6582
mp-769885,Sc2V2O7,1.2135000000000002
mp-769887,NbVO5,1.7853
mp-769888,Ho2V2O7,0.5065999999999997
mp-769889,TaFeO4,2.4105
mp-769890,NbVO5,1.8903
mp-769895,TaFeO4,2.1364
mp-769900,Sm2Mn2O7,0.7452000000000001
mp-769903,V2Si2O7,2.3302000000000005
mp-769906,Tm6WO12,3.3848
mp-769908,Li2Mn3CoO8,0.6454
mp-769910,V2Co3Te3O16,0.17039999999999988
mp-769911,MnCrO4,1.3462
mp-769912,Rb2Ni2O3,1.6966
mp-769918,Tm2Mn2O7,0.9966
mp-769919,CrFeO4,0.6658000000000002
mp-769920,TbCrO3,2.4854000000000003
mp-769922,V2SiO4,0.5883000000000003
mp-769923,TiCrO3,0.4272999999999998
mp-769924,Li3TiMn3O8,1.0529000000000002
mp-769929,MnCrO4,1.3321
mp-769932,LiMnBO4,0.2639
mp-769933,NiHgO2,0.7591999999999999
mp-769934,Na2Mn2O3,0.026600000000000183
mp-769939,LiMnBO3,2.5814
mp-769941,DyWO4,2.1716
mp-769942,LiMnBO3,2.6077
mp-769944,Li3FePCO7,4.0809
mp-769945,Li3FePCO7,4.0565000000000015
mp-769952,VSiO3,1.4652999999999992
mp-769957,CrFe2O5,0.3418999999999999
mp-773116,La20S29O,1.9418
mp-773126,Sm2(WO4)3,3.9757
mp-773129,LiSn2(PO4)3,2.7049000000000003
mp-773135,Li3Cu3(PO4)2,0.6978
mp-773136,LiCu2PO4,0.6086
mp-773146,Li2CuPO4,1.1588999999999992
mp-773167,Mn3CoO8,0.052299999999999784
mp-773171,TiMn(PO4)2,1.0124
mp-773184,Li2MnSnO4,0.8064
mp-773186,Tb2WO6,2.9194
mp-773189,Sm2WO6,2.9672
mp-773192,Gd2(WO4)3,3.2203
mp-773197,Li2Cr4O13,1.4047
mp-773200,LiVB2O5,2.5525
mp-777303,Li3CrO4,0.9148000000000004
mp-777305,LiFeF3,3.1206
mp-777321,LiMnF4,1.5192
mp-777324,Li4FeO3F,2.6416
mp-777325,V3(O2F)2,0.8585000000000003
mp-777328,V2OF5,1.4855
mp-777362,LiFeF3,3.5106
mp-777389,LiFeF3,3.0524
mp-777393,LiFeF3,0.0010999999999998786
mp-777394,Sn2N2O,0.7619000000000007
mp-777418,Li2FeF4,3.5922
mp-777423,Na6Ti2O7,3.6309
mp-777428,Na3NiO2,1.5896
mp-777433,V6O7F5,0.28489999999999993
mp-777434,Na2NiO3,0.8452999999999999
mp-777447,LiFe2F7,3.4868
mp-777448,Li2VF4,2.6698000000000004
mp-777453,LiVF6,3.1431
mp-777457,Li2FeF4,3.5784
mp-777459,Li3FeF6,3.814200000000001
mp-777463,Li2FeF6,0.29089999999999994
mp-777466,Li2FeF4,3.7132
mp-777469,VO2,0.7146999999999999
mp-777470,LiFeF3,3.459
mp-777471,Li2FeF4,3.5869999999999997
mp-777472,LiFeF4,3.9064
mp-777477,LiFeF4,3.1167
mp-777479,VO2,1.3786999999999998
mp-777480,Li2Ti3MnO8,1.4421999999999997
mp-850227,LiCrPO5,0.1292000000000002
mp-850228,Li6Mn5Fe(BO3)6,2.6117000000000004
mp-850248,LiMn2(BO3)2,0.4159999999999999
mp-850251,Na2Ti9O19,1.7632
mp-850277,SrCaI4,3.5551
mp-850280,Na8SnO6,1.7356
mp-850305,SrCaI4,3.713
mp-850329,Fe4O3F5,1.4527
mp-850340,Fe4O3F5,0.4542999999999997
mp-850341,Fe4O3F5,1.5869
mp-850358,LiCuSbO4,0.3439999999999994
mp-850361,Fe3(OF2)2,1.3797
mp-850362,Li4MnFe3(BO3)4,3.1630000000000003
mp-850363,Ti2Co3Te3O16,0.3454000000000001
mp-850364,Fe4O3F5,1.3047