task_id,pretty_formula,band_gap
mp-1029219,Te2MoW3(Se2S)2,0.0
mp-1029225,Te2MoW3(SeS2)2,0.0
mp-1029231,Te4MoW3(SeS)2,0.0
mp-1029233,Te4MoW3(SeS)2,0.0
mp-1029235,Te4MoW3S4,0.0
mp-1029243,TeMoWSe3,0.0
mp-1029248,Te2Mo(WS2)3,0.0
mp-1029249,TeMoWSe2S,0.0
mp-1029250,Te2MoW3(Se2S)2,0.0
mp-1029257,Zn2ReN3,0.0
mp-1029770,BaCrN2,0.0
mp-1029775,BaMnN2,0.0
mp-1029937,TeMoWSeS2,0.0
mp-1029945,Te2MoWSeS,0.0
mp-1029946,Te2MoWS2,0.0
mp-1029948,Te2MoW3(SeS2)2,0.0
mp-1029950,Te2MoWS2,0.29949999999999966
mp-1029952,Te3MoWS,0.0
mp-1030102,Te4MoW3(SeS)2,0.0
mp-1030128,Te4MoW3(SeS)2,0.0
mp-1030136,Te6MoW3S2,0.0
mp-1030153,Te4MoW3S4,0.0
mp-1030154,Te4Mo3W(SeS)2,0.0
mp-1030159,Te4MoW3(SeS)2,0.0
mp-1030160,Te6Mo3WSe2,0.36209999999999987
mp-1030162,TeMoWSe2S,0.0
mp-1030163,TeMoWSe3,0.0
mp-1030164,Te2MoWSe2,0.24399999999999977
mp-1030176,Te2MoWSeS,0.0
mp-1030190,TeMoWSe2S,0.0
mp-1030195,Te3MoWS,0.0045999999999999375
mp-1030196,Te2MoWS2,0.0
mp-1030198,Te2MoWSeS,0.0
mp-1030201,Te2MoWSeS,0.0
mp-1030235,Te3MoWSe,0.005799999999999805
mp-1030236,TeMoWS3,0.0
mp-1030240,Te4Mo3WS4,0.0
mp-1030243,TeMoWSeS2,0.0
mp-1030244,Te2MoW3(SeS2)2,0.0
mp-1030247,Te6MoW3S2,0.0
mp-1030252,Te4Mo3W(SeS)2,0.0
mp-1030268,TeMoWSeS2,0.0
mp-1030269,Te4Mo3WS4,0.0
mp-1030274,Te3Mo2S,0.0
mp-1030281,Te6Mo3WS2,0.044700000000000184
mp-1030284,Te4Mo3W(SeS)2,0.0
mp-1030286,Te2MoWS2,0.0
mp-1030289,TeMoWSeS2,0.0
mp-1030295,Te3MoWSe,0.0051000000000001044
mp-1030297,TeMoWSe2S,0.0
mp-1031270,KRbMg6O7,0.0
mp-1031367,KLiMg6O7,0.0
mp-1031383,KRbMg6O7,0.0
mp-1031421,KNaMg6O7,0.0
mp-1031453,KNaMg6O7,0.0
mp-1031661,KRbMg6O7,0.0
mp-1035222,Mg14CuSiO16,0.0
mp-1111791,Rb2InAuI6,0.0
mp-1113131,Cs2KScF6,6.818099999999999
mp-1125186,U6Fe16Si7,0.01559999999999917
mp-1182029,C,0.0
mp-1183062,AcDy3,0.0
mp-1183150,AcSiO3,0.0
mp-1183443,BeSbO3,0.0
mp-1183449,BeVO3,0.0
mp-1183469,BiPtO3,0.0
mp-1183473,BeRu3,0.0
mp-1183503,Ca2HgBi,0.0
mp-1183534,CaScO3,0.0
mp-1183626,Cd3Ir,0.0
mp-1183772,CoMoO3,0.0
mp-1183971,CsRuO3,0.0
mp-1184121,CuRu3,0.0
mp-1184168,ErBi3,0.0
mp-1184230,Fe3Ag,0.0
mp-1184309,EuLuO3,0.0
mp-1184378,EuIn3,0.0
mp-1184479,Gd3In,0.0
mp-1184569,Hg,0.0
mp-1184599,GdZrO3,0.0
mp-1184610,HoBeO3,0.0
mp-1184660,Ho3Ga,0.0
mp-1184853,In3Si,0.0
mp-1184960,KMgO3,0.0
mp-1185261,LiNiO3,0.0
mp-1185297,LiAcO3,0.0
mp-1185436,Lu2GaRu,0.0
mp-1185564,CsYbO3,0.0
mp-1185846,MgAu3,0.0
mp-1186043,Na3Hf,0.0
mp-1186120,NpCo3,0.0
mp-1186244,PmNd3,0.0
mp-1186274,Nd3Mg,0.0
mp-1186367,Pa,0.0
mp-1186621,PmNp,0.0
mp-1186747,PrHfO3,0.0
mp-1186927,SbPdO3,0.0
mp-1187137,Sr3Pb,0.0
mp-1187151,SrCa3,0.0
mp-1187190,SrPdO3,0.0
mp-1187191,SrScO3,0.0
mp-1187291,Tb3Lu,0.0
mp-1187315,Tb3Zn,0.0
mp-1187390,TbTh3,0.0
mp-1187448,ThWO3,0.0
mp-1187501,TlH,0.0
mp-1187573,YbMg,0.0
mp-1187600,YbPa3,0.0
mp-1187735,Y3Bi,0.0
mp-1199235,La5Ir3,0.0
mp-1205500,Sm3(AgSn)4,0.0
mp-1206414,Tl2F3,0.0
mp-1206747,LuTl,0.0
mp-1206985,TiFe3N,0.0
mp-1206990,Sm3SnN,0.0
mp-1206994,La3SnN,0.0
mp-1207080,TbHSe,1.5507999999999997
mp-1207086,MgAlB4,0.0
mp-1207121,Fe2SiNi,0.0
mp-1207188,SmSbPt,0.0
mp-1207194,Cu3RhN,0.0
mp-1209103,RbN,0.0
mp-1211034,Mg2Si4O11,0.0
mp-1215206,ZrMo,0.0
mp-1215996,Zr2P4O17,0.0
mp-1216347,VFe,0.0
mp-1216666,TiNbCr4,0.0
mp-1216695,TmMnIn,0.0
mp-1217402,TbZnSi,0.0
mp-1217510,U6P13Rh20,0.0
mp-1217887,TaTi,0.0
mp-1217961,TaAu,0.0
mp-1219064,SmCuGe,0.0
mp-1219103,SmAlGa,0.0
mp-1219146,SmFe10Mo2N,0.0
mp-1219300,ScCoNiSn,0.0
mp-1219711,PtW,0.0
mp-1220328,Nd2Al3Ga,0.0
mp-1220360,NbOs3,0.0
mp-1220726,Nb2N,0.0
mp-1221275,Na2Zn3GeAs4,0.0
mp-1221821,Mn2NiSn,0.0
mp-1221872,Mn2GaRh,0.0
mp-1222013,MgAl2,0.0
mp-1222288,LiZn3,0.0
mp-1222602,Li2SiAu,0.0
mp-1222647,Li2MgGa,0.0
mp-1222662,Li2MgBi,0.0
mp-1222950,LaFeCuNi3,0.0
mp-1224712,GdCuSi,0.0
mp-1224874,Gd2Si3,0.0
mp-1225092,Er(AlFe)6,0.0
mp-1225094,FeNi2Ge,0.0
mp-1225251,EuAgSn,0.0
mp-1225995,CoRe,0.0
mp-1226205,Co3W9C4,0.0
mp-1228901,AlAg,0.0
mp-1229012,AgPd,0.0
mp-1237948,PmMgSe3,0.0
mp-1238777,CoNiO2,0.0
mp-1238878,Rb(CrS2)2,0.0
mp-19863,K2CuPb(NO2)6,0.0
mp-30871,Ta3Sn,0.0
mp-631567,AgAsRu2,0.0
mp-631573,Re2AuSe,0.0
mp-631661,Y2FeB,0.0
mp-635460,V3AuN,0.0
mp-650,Be5Pd,0.0
mp-7171,TmP,0.0
mp-765756,MnNiO2,0.0
mp-778784,Fe6O7F5,0.0
mp-961708,NbInPt,0.0
mp-961720,ZrAsRh,0.0
mp-962069,LiAgTe,0.0
mp-974376,PtRh3,0.0
mp-974469,ReTe,0.0
mp-975387,RbBaO3,0.0
mp-975994,NaLa3,0.0
mp-977343,H3Pt,0.0
mp-999096,Ti2AlCr,0.0
mp-999391,NbFe3,0.0
mp-1004525,SmB12,0.0
mp-1004753,PrB12,0.0
mp-1004756,NdB12,0.0
mp-1005666,Sc3Al3C2O5,0.41270000000000007
mp-1005690,Sm2Co12P7,0.0
mp-1005752,Sm3In,0.0
mp-1005760,Tl3Os,0.0
mp-1005829,Sm2Mn12P7,0.0
mp-1005955,Tm3Ni7B2,0.0
mp-1005986,Zr9CoMo4,0.0
mp-1006059,Tl3Bi,0.0
mp-1006127,Pa3Mo,0.0
mp-1006132,Hf3Pb,0.0
mp-1006164,PmPu3,0.0
mp-1006223,GdB12,0.0
mp-1006258,ErPu3,0.0
mp-1006322,Ce(FeB)4,0.03910000000000036
mp-1006351,CeY3,0.0
mp-1006399,CeZnIn,0.0
mp-1014265,Zr2N,0.0
mp-1014281,C3N,0.0
mp-1014287,C3N,0.0
mp-1014296,C3N,0.0
mp-1014297,C3N,0.0
mp-1014318,Cr3N2,0.0
mp-1014324,C3N,0.0
mp-1014332,C3N,0.0
mp-1014333,C3N,0.0
mp-1014345,Cr3N4,0.0
mp-1014347,Cr3N4,0.0
mp-1014369,Cr3N4,0.0
mp-1014379,Cr3N4,0.0
mp-1014444,Cr3N2,0.0
mp-1014462,Li2YAl,0.0
mp-1014478,CrN2,0.0
mp-1014509,Cr3N2,0.0
mp-1014873,NaLi2As,0.0
mp-1015061,NaLi2Sn,0.0
mp-1019731,EuAl3(BO3)4,0.0
mp-1019734,EuBN2,0.0
mp-1019799,K8NO3,0.0
mp-1020591,Rb8NO3,0.0
mp-1020595,Rb8PO3,0.0
mp-1020625,Rb8N3O,0.0
mp-1021393,KMg6Mo,0.0
mp-1022488,NaMg6Zr,0.0
mp-1022584,KMg6Zr,0.0
mp-1023193,CaMg6Nb,0.0
mp-1023227,CaHfMg6,0.0
mp-1023329,CaMg6Zr,0.0
mp-1030307,Te2MoWSeS,0.0
mp-1030309,Te2MoWS2,0.0
mp-1030332,Te4Mo3W(SeS)2,0.0
mp-1030333,Te6Mo3WS2,0.011800000000000033
mp-1030334,Te4Mo3WSe4,0.0
mp-1030338,Te4Mo3W(SeS)2,0.0
mp-1030340,Te6Mo3WS2,0.0
mp-1030352,TeMoWS3,0.0
mp-1030353,Te3MoWS,0.0
mp-1030388,TeMoWSeS2,0.0
mp-1030389,TeMoWSe2S,0.0
mp-1030390,TeMoWSeS2,0.0
mp-1030391,Te2MoWS2,0.0
mp-1030392,Te2MoWSeS,0.0
mp-1030393,TeMoSe,0.01470000000000038
mp-1030403,Te2Mo3W(Se2S)2,0.0
mp-1030405,Te2MoWSeS,0.0
mp-1030409,Te2Mo3W(Se2S)2,0.0
mp-1030410,Te2Mo3WSe6,0.0
mp-1030418,Te2Mo3W(SeS2)2,0.0
mp-1030448,Te6MoW3Se2,0.10460000000000003
mp-1030449,Te4Mo3WSe4,0.05369999999999919
mp-1030450,Te4Mo3W(SeS)2,0.0
mp-1030456,Te2Mo3W(Se2S)2,0.0
mp-1030458,Te2Mo3WS6,0.0
mp-1030461,TeMoS,0.0
mp-1030462,Te2Mo3W(SeS2)2,0.0
mp-1030465,MoW3(Se3S)2,0.9203000000000001
mp-1030466,TeMoWSe3,0.0
mp-1030467,Te4Mo3WS4,0.0
mp-1030512,TeMoWSeS2,0.0
mp-1030514,Te2Mo3W(Se2S)2,0.0
mp-1030515,TeMoWSe2S,0.0
mp-1030516,TeMoWSe2S,0.0
mp-1030518,TeMoWSeS2,0.0
mp-1030525,Te2MoW3(SeS2)2,0.0
mp-1030526,TeMoWSe2S,0.22560000000000002
mp-1030571,Te4Mo3W(SeS)2,0.0
mp-1030572,Te2MoW3(Se2S)2,0.0
mp-1030574,Te4MoW3(SeS)2,0.0
mp-1030575,Te2Mo3W(Se2S)2,0.0
mp-1030576,Te4Mo3W(SeS)2,0.0
mp-1030577,Te6Mo3WSe2,0.274
mp-1030578,TeMoWSe2S,0.0
mp-1030580,TeMoWSeS2,0.0
mp-1030596,Te2MoWSeS,0.0
mp-1030605,Te2Mo3WSe6,0.0
mp-1030615,Te4Mo3WSe4,0.10920000000000041
mp-1030617,TeMoWSe3,0.0
mp-600428,Mn3Sn2,0.0
mp-600433,FeHC2O3,1.8730999999999998
mp-600622,EuIO,0.0
mp-601178,H6C2NO,2.5940999999999996
mp-601273,Sc,0.0
mp-601286,TbCuPbSe3,1.2379000000000007
mp-601574,VH4(CO3)2,2.9939999999999998
mp-601693,YbBrO,0.0
mp-601823,TaTe2,0.0
mp-601833,Fe13Ge3,0.0
mp-625394,La(HO)3,3.7163999999999997
mp-625397,Nd(HO)3,3.7396000000000003
mp-625447,Pr(HO)3,3.7452999999999994
mp-625467,Eu(HO)3,0.0
mp-625472,Tm(HO)3,3.6113999999999997
mp-625915,Ce(HO)3,0.0
mp-626413,Yb(HO)3,0.0
mp-626504,Al(HO)3,4.747599999999999
mp-626610,V6H4O13,0.0
mp-626869,H2WO5,1.9137000000000002
mp-627355,CeGePt,0.0
mp-627591,Fe2SiS4,0.0
mp-627601,AgSbS2,1.5593000000000001
mp-654812,CdCO3,0.0
mp-655631,FeBiO3,1.7629000000000001
mp-662534,AgIrF7,0.0
mp-662558,Ce3Sb5Pd6,0.0
mp-662702,NaIO4,0.0
mp-667386,Na3Sr4Al5F26,6.915900000000001
mp-696470,Ag7NO6,0.0
mp-696590,TiH8(NF3)2,4.7166999999999994
mp-697126,Ca4(H4Rh)3,0.0
mp-697761,MnPO4,1.1500000000000001
mp-698060,PHOF2,7.0024999999999995
mp-698287,YH2C4O9,0.0
mp-698357,SnH8(CI)4,3.0235999999999996
mp-698396,CuH4C2NCl3O,0.11909999999999998
mp-744574,CoH6(SeO4)2,2.9482999999999997
mp-744832,V3HPb5O13,2.8577999999999997
mp-744948,FeH8(ClO2)2,3.8562000000000003
mp-745101,V2Cu3H6O11,0.0
mp-757583,Li2TiCuO4,0.0
mp-757594,Os(OF2)2,1.9011999999999998
mp-757758,LiTi3Nb(PO4)6,2.5172999999999996
mp-757785,Bi12PbO19,2.0968999999999998
mp-757852,Bi16O25,0.0
mp-757966,Li3Sn2(PO4)3,0.0
mp-763012,Li2MnF4,3.7439999999999998
mp-763059,LiV(CO3)2,1.8881000000000001
mp-763067,FeOF,0.0
mp-763082,Mn3O5F,0.0
mp-763092,Li2Mn3F8,2.8558999999999997
mp-763106,Mn3O5F,0.0
mp-763110,Li2Fe3(CoO4)3,0.0
mp-763112,Li4Co3Cu3(WO8)2,0.0
mp-763115,Li4Mn2Cr3Co3O16,0.0
mp-763119,TiFe3Co2(PO4)6,0.0
mp-763120,Cr2CoNi3(PO4)6,0.0
mp-763121,Fe3CoCu2(PO4)6,0.0
mp-763125,Li4V2Co3Ni3O16,0.0
mp-763126,Li4Mn2Co3Cu3O16,0.0
mp-763129,Mn2Fe3Co(PO4)6,0.0
mp-763135,Li2Cr2CoO6,0.0
mp-763144,Mn6OF11,0.0
mp-763146,Li4Ti2Co3Ni3O16,0.0
mp-763152,Li4V3Co3(WO8)2,0.0
mp-763153,Li2Ti3Co(PO4)6,0.0
mp-763154,Mn3CoCu2(PO4)6,0.0
mp-763155,Li4Co3Ni2Sb3O16,0.0
mp-763156,Li4V2Co3Cu3O16,0.0
mp-763163,Li4Fe3Co2Cu3O16,0.0
mp-763171,Mn2VNi3(PO4)6,0.0
mp-765234,MnF3,0.0
mp-765257,Li6V2O5F2,1.9696000000000002
mp-765265,Ti2Mn(PO4)3,0.15549999999999997
mp-765304,Li3Ni8(OF3)4,0.0
mp-765312,Li3VFeP2(HO5)2,0.0
mp-765327,V3FeCu2(PO4)6,0.0
mp-765328,Li8VNi3(PO4)6,1.5875000000000001
mp-765332,Mn3F8,0.9161000000000001
mp-765341,LiCuF4,0.0
mp-768029,LiFe(CO3)2,2.1191999999999998
mp-768093,VSO4F3,0.9282999999999999
mp-768121,NaSbPCO7,0.0
mp-768132,Na2GePCO7,0.0
mp-768137,Na2SnPCO7,0.0
mp-768169,Li3CaPCO7,4.872999999999999
mp-768172,Na2SnPCO7,0.0
mp-768207,Li2SbPCO7,3.2196000000000002
mp-768243,Tm2TiO5,3.1693999999999996
mp-768247,PtO3,0.0
mp-768262,V3F10,0.0
mp-768285,Be2GeO4,3.9902999999999995
mp-768308,LaAgO3,0.0
mp-768309,Ce2TiO5,0.0
mp-768311,Cs3NO4,3.0787999999999993
mp-768313,Dy2TeO6,3.0065999999999997
mp-768335,Li3(FeS2)2,0.0
mp-768342,SrNb2O4,1.1539000000000001
mp-768360,Li3(FeS2)2,0.0
mp-768382,La2Al4O9,3.7105999999999995
mp-768414,Li4VS4,0.0
mp-768452,Li5Bi2(BO3)4,0.0
mp-771200,LiCo3O4,0.0
mp-771202,Li4Co5SnO12,0.0
mp-771231,Li4Mn5Co3O16,0.0
mp-771250,Na3SiSnCO7,0.0
mp-771272,MnTlO3,0.0
mp-771287,Mg2FeO4,0.0
mp-774117,V2O3F,0.0
mp-774124,Li2MnO2,0.0
mp-774143,MnSbO4,0.0
mp-774308,Fe5O7F3,0.0
mp-774310,Li10Cr2Fe3Co3O16,0.0
mp-774344,Mn5Sn(PO4)6,0.0
mp-774347,Mn3Fe(PO4)6,0.0
mp-774356,Li3Mn2(SiO4)2,0.0
mp-774384,Fe10O11F9,0.0
mp-774394,Fe10O11F9,0.0
mp-774402,VCr3(PO4)6,0.0
mp-774406,Cr3Ni(PO4)6,0.0
mp-778023,LiMnCo3O8,0.0
mp-778259,PrHfO4,0.19340000000000002
mp-778268,Ti3CrSb2(PO4)6,0.0
mp-778275,Fe3Co7O20,0.0
mp-778276,Mn3NbNi2(PO4)6,0.0
mp-778317,Ti3NbFe2(PO4)6,0.0
mp-778363,Li4Ti3Fe2Sn3O16,1.2871000000000001
mp-778393,Ti3MnCo2(PO4)6,0.0
mp-778408,HgBiO3,0.0
mp-778412,Co2O3F,0.0
mp-778473,Gd3SbO7,2.5258999999999996
mp-778503,Ti3Fe2Sb(PO4)6,0.028900000000000148
mp-778504,Ti5Ni(PO4)6,0.0
mp-778512,LiFeF4,0.0
mp-849059,NiS2,0.0
mp-849086,CuS2,0.0
mp-849092,NiS2,0.0
mp-849216,NaCr2O4,0.0
mp-849422,Li4Cr3Co3(WO8)2,0.0
mp-849439,Mn3O5F,0.0
mp-849460,Mn2OF3,0.472
mp-849463,Li11(FeO3)4,0.0
mp-849464,Li3Mn5(CuO6)2,0.0
mp-849466,Mn3O5F,0.0
mp-849468,Li4Fe3Co3(TeO8)2,0.0
mp-849471,Li4Mn3Cr2Fe3O16,0.0
mp-849475,VO2F,1.7911000000000001
mp-849495,Li4Mn2Cu3O10,0.0
mp-849510,Mn6O7F5,0.0
mp-849526,V6O11F,0.0
mp-601848,Fe11Co5,0.0
mp-601852,La3Si2Rh3,0.0
mp-601881,CaAlH5,2.936
mp-601952,K2FeCu(CN)6,0.0
mp-602328,Ce(InPt)2,0.0
mp-602355,Cr3HO8,0.0
mp-603276,NaSr7Cu8(SF)8,0.0
mp-603347,TiNi,0.0
mp-603567,ZnCoPHO5,2.8373999999999997
mp-603934,Fe2CuS3,0.0
mp-603959,SrCrO4,2.8392999999999997
mp-604008,CeAlRu,0.0
mp-604153,LaCr2Si2C,0.0
mp-604254,U2Al20Fe,0.0
mp-604304,HgH16(Br3N2)2,1.9891999999999999
mp-604318,K,0.0
mp-604537,MnGaNi2,0.0
mp-627993,LiV2O5,0.29259999999999975
mp-628185,K3NaSn3Se8,1.4211000000000003
mp-628549,Pr(WO3)5,0.0
mp-628568,FeCu2SnS4,0.0
mp-643384,BaHIO,3.9361999999999995
mp-643392,Ca(HO)2,4.284999999999999
mp-643561,VH6(OF)3,1.6462999999999999
mp-643701,TlP(HO2)2,3.9882000000000004
mp-644302,NaHSeO4,3.4353999999999996
mp-644332,KMnF3,2.6891999999999996
mp-644762,Eu(ZnSn)2,0.0
mp-644827,TePCl9,1.7973000000000001
mp-644875,Ba2(InAs)5,0.045700000000000074
mp-645182,Sm2NiSn4,0.0
mp-695365,LiAl3Si9(N7O)2,3.8741000000000003
mp-695383,K2HS2NO6,5.2707999999999995
mp-695396,Na3SrTiNb3O12,1.6564999999999999
mp-695409,Ba7Na3Ti7Nb3O30,1.1139999999999999
mp-695476,NaSr8LaTi10O30,1.8021999999999996
mp-695506,Na3Ca7Ti7Nb3O30,1.1804999999999999
mp-695553,Ba4Nd7Si12BN27,0.0
mp-695596,Ba4Pr7Si12BN27,0.0
mp-695793,ZnAs4(HO2)8,0.12529999999999997
mp-695829,RbHSeO4,3.6169000000000002
mp-695831,CaH4(N3O)2,4.184699999999999
mp-695941,Ag3H13SeN4O5,1.9348999999999998
mp-753663,BaYBr5,3.6748000000000003
mp-753676,Ta2TiO6,0.0
mp-753699,Bi4O5F2,3.0917999999999997
mp-753712,YIO,3.4111000000000002
mp-753726,TbCeO4,0.0
mp-753746,Rb2O,0.45309999999999995
mp-753755,Bi3O4F,2.1424999999999996
mp-753768,TbPrO4,0.0
mp-753774,KTmO2,3.9742999999999995
mp-753776,Li4SbS4,0.0
mp-753795,Li3BiO3,2.9917000000000002
mp-753806,BSbO3,3.7620000000000005
mp-753809,BaCaI4,3.7974000000000006
mp-753818,Li3(FeS2)2,0.0
mp-753831,Cu2OF2,0.0
mp-753848,Li(CuO)3,0.0
mp-753858,TiOF2,3.8973999999999998
mp-753879,Pr2S2O,2.3611999999999997
mp-753891,ZrTiO4,2.8427000000000002
mp-753942,BaY3Br11,3.0403000000000002
mp-753945,ClOF3,3.6498999999999997
mp-753948,PrTiO3,0.0
mp-753973,LiSnP2O7,0.0
mp-753975,Dy2(BiO2)7,0.0
mp-754040,CeSmO2,0.0
mp-754044,Ho2TiO5,2.9404999999999997
mp-754052,Li3(Fe2S3)2,0.0
mp-754093,Gd2CdO4,1.6159999999999999
mp-754095,Li3Cu4F9,0.0
mp-754112,CeBrO,0.0
mp-754114,SrSc2O4,3.5039999999999996
mp-757981,Na2SnGe2(HO4)2,2.4185999999999996
mp-757997,LiSn(PO3)4,0.0
mp-761451,Li2CrPO5,2.3447999999999998
mp-761458,Li4Nb3V3Cr2O16,0.20309999999999961
mp-761460,Li2FeP2O7,3.8886000000000003
mp-761462,LiFePO4,3.3556999999999997
mp-761463,Li2FeP2O7,3.5555999999999996
mp-761465,Li2V(SiO3)3,2.1058999999999997
mp-761466,K(WO3)4,0.0
mp-761471,Co5O8,0.0
mp-761473,V2Bi4O11,2.3259999999999996
mp-761480,LiFePO4,3.1569999999999996
mp-761485,Li2Mn(SiO3)2,2.6073999999999997
mp-761489,LiFePO5,0.0
mp-761492,Co11CuO16,0.0
mp-761514,Li3Fe(PO4)2,1.9249999999999998
mp-761518,Li2Fe(PO4)2,0.0
mp-761524,MgCoO3,0.0
mp-761531,MnV3Ni2(PO4)6,0.10460000000000003
mp-761537,Li4CoCu3(PO4)4,0.0
mp-761540,Co3SbO8,0.0
mp-761547,CoAgO3,0.0
mp-761556,MnCoO4,0.0
mp-761557,Co5SbO12,0.0
mp-761560,LiMnPO4,3.4920999999999998
mp-761565,Li4Mn3Cu(PO4)4,0.0
mp-761570,Li3MnPO5,2.2055000000000002
mp-764497,VFe2Ni3(PO4)6,0.0
mp-764505,LiFe2(BO3)2,1.8923999999999999
mp-764509,Mn3O5F,0.0
mp-764511,Mn6OF11,0.0
mp-764526,Mn6OF11,0.29880000000000007
mp-764530,Na2FeO3,0.0
mp-764549,V3(O2F)2,0.9929999999999999
mp-764553,Mn3OF8,0.0
mp-764555,NaCr4O8,0.0
mp-764559,LiFe2(BO3)2,0.0
mp-764569,Mn3(O2F)2,0.0
mp-765364,Li10Mn2V3Cr3O16,1.8132999999999995
mp-767861,Li2Si2Ni2O7,3.2025000000000006
mp-767893,Li3CrPCO7,2.5572999999999997
mp-767896,Li2SiNiO4,3.1113999999999997
mp-767898,Li3CrPCO7,2.7159999999999997
mp-767902,Li3CoPCO7,2.8343999999999996
mp-767904,Li9Mn14O32,0.0
mp-767922,Mn3CrTe2(PO4)6,0.0
mp-768468,In2Bi2O7,0.33340000000000014
mp-768482,Bi2(SO4)3,3.8124000000000002
mp-771725,LiNi3O4,0.0
mp-771727,P4H3(WO8)2,2.4151999999999996
mp-771728,Li4Nb3Cr5O16,0.20429999999999993
mp-771734,Li4Fe5Ni3O16,0.0
mp-771737,Co7O12,0.0
mp-771739,Li3Mn(SbO3)4,0.0
mp-771750,Sr(IO3)2,3.7390000000000003
mp-771760,Na3CoSiBO7,0.0
mp-771765,Li4NbCr5O12,0.9773000000000001
mp-771779,Na5Co2P(CO4)4,0.0
mp-771780,Li3Zn(Fe5O8)4,0.9998000000000005
mp-771792,Li3V4NiO12,0.0
mp-771794,Li4Mn(TeO4)3,0.0
mp-771795,KLi4FeO5,0.0
mp-771799,Mn3V(PO4)4,0.07960000000000012
mp-771834,Tb3NbO7,0.0
mp-771839,Na4Co2C4SO16,0.0
mp-771848,Li3Mn4SbO8,0.0
mp-771860,Mn3Ni3(TeO8)2,0.0
mp-775993,TiMn2Fe3(PO4)6,0.0
mp-775994,Ti3CrCu2(PO4)6,0.0
mp-775995,Mn3CrSn2(PO4)6,0.0
mp-775996,TiFe3Cu2(PO4)6,0.0
mp-775998,Li4CrBi(TeO6)2,0.48770000000000024
mp-776003,Mn2V3Cu(PO4)6,0.0
mp-776006,VCo(PO4)2,0.0
mp-776009,Ti3CoCu2(PO4)6,0.0
mp-776011,Cr2Fe3Ni(PO4)6,0.0
mp-776012,Ti3FeCu2(PO4)6,0.0
mp-776049,V3Fe2Cu(PO4)6,0.0
mp-776055,Fe3Cu2Sb(PO4)6,0.0
mp-776056,Mn3Cr2Sb(PO4)6,0.0
mp-776057,TiCr2Ni3(PO4)6,0.0
mp-776059,Ti3NbCo2(PO4)6,0.18800000000000017
mp-776060,MnCr2Fe3(PO4)6,0.0
mp-776068,LiVCrO4,1.3665000000000003
mp-776091,LiLaNdSbO6,3.917299999999999
mp-776111,Li8Fe7(PO4)8,0.024399999999999977
mp-776116,AlPdO3,0.0
mp-776118,Mn3FeSn2(PO4)6,0.0
mp-776120,Mn3Cr2Cu(PO4)6,0.0
mp-776139,LiVF5,1.866
mp-776140,Li2MnV5O12,0.0
mp-776141,Li4Fe3Co2Sb3O16,0.20180000000000042
mp-776146,Li2V3FeO8,1.0216000000000003
mp-776147,Li2TiFe3O8,0.0036999999999998145
mp-776148,Li20Co21O40,0.0
mp-776165,AgAuO3,0.24230000000000018
mp-776168,AgRuO3,0.0
mp-776172,AlCuO3,0.35000000000000053
mp-778534,LiCrPO5,1.1484999999999999
mp-778538,Mn6O5F7,0.0
mp-780875,Mn8O13F3,0.0
mp-780877,Li2Mn3(BO3)3,0.0
mp-780883,Mn3(OF2)2,0.11080000000000001
mp-780886,Mn3Cr3(CoO8)2,0.0
mp-780888,Li(CoO2)4,0.0
mp-780891,Fe4O7F,0.0
mp-780892,Na4Fe2As(CO4)4,0.0
mp-780893,Na6V2O7,0.9095999999999997
mp-780895,Fe4O7F,0.0
mp-780896,MnCr(PO4)2,0.0
mp-780901,Li4Cr2Ni5O12,0.0
mp-780906,Co3(O2F)2,0.0
mp-780908,Na3FeO4,0.0
mp-780909,Li2Fe3F8,2.9172000000000002
mp-780914,Mn2OF3,0.011200000000000099
mp-780918,Li2MnSiO4,2.9646999999999997
mp-780978,Fe4O3F5,1.2248999999999999
mp-781012,Na4Fe6O13,0.0
mp-849601,Mn3(O2F)2,0.0
mp-604594,Ce2In5Pd4,0.0
mp-604613,La2Ga12Ni,0.0
mp-604647,TiAs2,0.0
mp-604725,RbMgP(H6O5)2,4.7947999999999995
mp-604914,VSe,0.0
mp-605088,GaH19C8,3.558
mp-605485,Fe2CuS3,0.0
mp-605486,ScTl(MoO4)2,3.6563000000000003
mp-605503,CrP3(HO5)2,3.2897999999999996
mp-605663,AlPd5,0.0
mp-605735,Sr3In4Pb,0.0
mp-605771,TlIn(MoO4)2,3.6347000000000005
mp-605821,Nd3SeBrN2,1.2121999999999997
mp-605860,Ba2LiN,0.0
mp-606901,Sr2CoSe2(ClO3)2,2.8926999999999996
mp-606912,S4N5Cl,1.8899000000000001
mp-607077,Ce(Al4Fe)2,0.0
mp-607169,Eu(GePt)2,0.0
mp-645301,K2CoP2WO10,2.6609999999999996
mp-645514,Bi12Rh3Br2,0.0
mp-645774,SnSO4,4.068300000000001
mp-645935,Ni3Mo2SeO11,2.5395999999999996
mp-646039,In7Cu10,0.0
mp-646102,Al3Bi5Cl12,1.8215999999999999
mp-646392,Dy3Co,0.0
mp-646402,SrCo12O19,0.0
mp-646586,Sm6InCo2,0.0
mp-646633,V2Ni(PO5)2,1.7194000000000003
mp-646670,Ba2Co4ClO7,0.0
mp-646749,Nb2Ni4O9,0.0
mp-647149,Ni7Te6(ClO9)2,2.9532999999999996
mp-647812,Cr(CO)6,3.4576000000000002
mp-647900,TlAs3PbS6,0.0
mp-647969,CoAg(CO)4,2.5383999999999998
mp-648164,Mn2Hg(CO)10,2.811
mp-698605,CaGaBiB2O7,1.2817000000000003
mp-698686,Na3CaFe4(SiO3)8,0.02970000000000006
mp-698690,NaCaGaSi2O7,3.1210999999999998
mp-699151,Sr6Mg7H26,2.9736000000000002
mp-699229,HPb3ClO3,2.139
mp-699403,BaLa3TiCr3O12,1.8926999999999996
mp-699437,KP(HO2)2,4.786899999999999
mp-699469,AlH15N5Cl3,4.6579999999999995
mp-699660,KHo2Cu(MoO4)4,1.1534999999999997
mp-703468,Na3SiH5O6,3.8850999999999996
mp-754162,LiGdO2,3.0625999999999998
mp-754182,TbZr4O10,0.0
mp-754185,Y2MgNi2,0.0
mp-754204,LiGdO2,3.1304999999999996
mp-754206,LiBi3(ClO2)2,2.7135000000000002
mp-754211,SrLa2O4,3.7880000000000003
mp-754213,Li2ZrCuO4,0.0
mp-754214,TlAsO4,0.0
mp-754220,Tm(CuO2)2,0.0
mp-754224,BaSr2I6,3.7640000000000002
mp-754238,Li2CuBiO4,0.0
mp-754240,CaSm2O4,3.8425000000000002
mp-754253,EuTlO2,0.0
mp-754272,Cs2Ba2O3,1.6481999999999999
mp-754307,BaNdO3,0.0
mp-754311,Mg(ReO4)2,3.9655000000000005
mp-754317,NdO2,0.0
mp-754322,Sr2CuO4,0.0
mp-754327,Ho2CuO4,0.0
mp-754353,Zr3N4,0.9843999999999999
mp-754405,Ce2TiO5,0.0
mp-754422,BaYb2O4,0.0
mp-754459,BCl(OF2)2,1.762
mp-754462,SbTe2F6,0.9942999999999997
mp-754572,BaCa2I6,3.499
mp-754599,BaTm2O4,3.2296999999999993
mp-761582,LiNiP2O7,0.0
mp-761586,Li4Mn3Fe3(TeO8)2,0.12069999999999936
mp-761589,NbCo3O8,0.0
mp-761590,LiNiP2O7,0.0
mp-761603,LiV(SiO3)2,2.0452999999999997
mp-761608,Li2CoNiO4,0.0
mp-761617,Li5Fe3(CoO5)2,1.0204999999999997
mp-761618,LiMnPO5,0.0
mp-761621,VCo3(PO4)4,0.0
mp-761622,Li7Fe7SiO16,1.9546999999999999
mp-761623,Li5V(SiO4)2,0.21829999999999972
mp-761626,Li4Co5SbO12,0.0
mp-761636,Cr3Co(PO4)6,0.0
mp-761639,Mn3Co(PO4)6,0.0
mp-761641,LiMnPO5,0.0
mp-761642,Li2Cr3Si3O10,2.1845999999999997
mp-761653,Li2MnSi3O8,2.7363999999999997
mp-761659,Li4Cu3Ni(PO4)4,0.0
mp-761661,Li4Mn3Cu3(TeO8)2,0.0
mp-761665,Li2CoP2O7,2.6475999999999997