task_id,pretty_formula,band_gap
mp-707307,Nd2P3(HO2)5,5.675
mp-707312,SrH6C2S2N2O3,4.3178
mp-707342,ZnH18Ru2Br7N6,0.5591999999999999
mp-707343,ZrH12C2(NF)6,4.7771
mp-707366,NdH12C2N7O13,3.3087
mp-707377,RbHSO4,4.6737
mp-707412,H22C10O3,1.2407
mp-707413,CuH12N2(OF2)2,0.14439999999999995
mp-707517,RbUP2H8O11,0.09939999999999992
mp-707786,Ba(H9O5)2,0.2572
mp-723248,Re5H4(CO)20,0.3389999999999997
mp-762251,Ti9Fe11O30,1.3462
mp-762319,Li4TiO4,3.8456
mp-762336,LiSb(PO3)4,3.9234
mp-762347,Sn2N2O,0.6313999999999993
mp-762369,Y9U5O28,0.03350000000000008
mp-762376,Ti11Fe17O42,1.0425000000000004
mp-762395,Li2Cr(Si2O5)2,2.7249
mp-762470,Li3Fe5(PO4)6,1.8148
mp-762479,Li3Fe3(PO4)4,1.725
mp-762501,CaH8(NO5)2,3.4975
mp-762535,Li2Fe2(SiO3)3,2.9576
mp-762536,LiFe(PO3)4,2.2948
mp-762549,Li2Fe3(P2O7)2,3.9136
mp-762578,LiFe(PO3)4,2.4819
mp-762642,Li2Fe(PO3)4,3.7503
mp-769515,Na2FePCO7,2.4167
mp-769528,Na5Ni2P2(CO7)2,0.5256000000000001
mp-769529,Na5Mn2P2(CO7)2,0.3774
mp-769554,LiMgCr3(SO4)6,2.4161
mp-770055,Li2MnV(PO4)3,0.8939000000000001
mp-770120,Li3MnV(PO4)3,0.6598999999999999
mp-770121,Li8TiMn3(PO4)6,1.3653
mp-770131,LiFePCO7,0.00269999999999998
mp-770132,LiMnV(PO4)3,1.0301
mp-770134,Li2MnV(PO4)3,1.0059000000000002
mp-770179,Li2MnV(PO4)3,1.0875
mp-770205,Li3MnV(PO4)3,0.8696999999999999
mp-770271,BaLaCl5,4.1962
mp-770305,Rb5FeO4,1.5483000000000002
mp-770314,BaLaI5,2.6983
mp-770320,Rb8Fe2O7,2.0105000000000004
mp-770329,Rb5FeO4,1.8167
mp-770427,BaLaCl5,3.955
mp-770503,Li4V2Si(PO6)2,1.8829
mp-770565,TiCr(PO4)2,0.026200000000000227
mp-770573,Li4MnV(PO4)3,1.8432
mp-770579,LaMgI5,2.5974
mp-770670,MnP2O7,0.7626999999999999
mp-770837,Na5Fe2P2(CO7)2,1.3847
mp-770985,Li24MnCr11O36,0.9977
mp-771186,Li4Mn3Ni3(PO4)6,0.2550000000000001
mp-771244,Li4Co13O28,0.4038
mp-771281,Li5V4(PO4)6,0.8586999999999998
mp-771372,Li2MnV(PO4)3,1.1384
mp-771376,Li2MnV(PO4)3,0.8480999999999999
mp-771392,LiMn3(PO4)3,0.2279
mp-771466,Li2Cr2O7,2.4686
mp-779296,Li7Mn8(BO3)8,0.44779999999999975
mp-779303,Li7Mn8(BO3)8,0.19010000000000016
mp-779313,Li7Mn8(BO3)8,0.3849
mp-779335,LiMn2(BO3)2,0.15379999999999994
mp-779341,Li3Mn4(BO3)4,0.35540000000000016
mp-779345,Li11V6O5F19,0.6721999999999999
mp-779356,Li7Mn8(BO3)8,0.28579999999999983
mp-779372,Li8Mn3Fe5(BO3)8,3.1855
mp-779375,Li32Mn3Cr13O48,0.9789
mp-779377,Li32Mn3Cr13O48,0.9782000000000002
mp-779397,Li32Mn3Cr13O48,0.9956999999999998
mp-779398,Li32Mn3Cr13O48,1.0329000000000002
mp-779400,Li3V4(OF3)3,1.0576
mp-779408,Li2NiP2O7,4.1252
mp-779409,Mn12O7F17,0.0907
mp-779413,BaP4O11,5.1477
mp-779420,Dy2P4O13,5.5009
mp-779462,Sb2(SeO4)3,1.9958
mp-779463,Dy2P4O13,5.4334
mp-779525,Li3Sb3P8O29,2.3308
mp-779528,Ti17(NO4)6,0.1524000000000001
mp-779561,Ti17(NO4)6,0.13860000000000028
mp-779602,Li3Bi3P8O29,0.4995
mp-779723,Ba2P6O17,5.1667000000000005
mp-779727,Ti17(NO4)6,0.18459999999999965
mp-779737,Ho2P4O13,5.4324
mp-779825,LiV2(OF)3,0.9139
mp-779830,Li3MnV(PO4)3,0.3859999999999997
mp-779842,Li2MnV(P2O7)2,0.5154000000000001
mp-779847,Rb2CoO3,0.2792
mp-779874,Li2MnF4,3.3902
mp-779876,Li3MnV(PO4)3,0.005100000000000104
mp-779880,Ba2GeO4,3.4905000000000004
mp-779882,Mn6O5F7,0.07339999999999991
mp-779989,Gd2P4O13,3.3476
mp-780003,La2P4O13,4.7536999999999985
mp-780104,Mn12O7F17,0.25539999999999985
mp-780112,Li5Mn8(BO3)8,0.4278000000000002
mp-780136,Li3Mn4(BO3)4,0.15490000000000004
mp-780151,Li3Cr2(PO4)3,2.7965
mp-780180,Li3Mn4(BO3)4,0.24560000000000004
mp-780182,Li3Mn4(BO3)4,0.3194000000000001
mp-780235,LiSn2(PO4)3,3.5521000000000003
mp-780238,NaBi5O8,2.286
mp-780306,Na2V2O5,1.1709
mp-780333,Li3Bi2(PO4)3,4.1032
mp-780334,LiMn2(BO3)2,0.3817999999999999
mp-780338,LiCr(SO4)2,2.0298
mp-780361,La2P4O13,4.7772999999999985
mp-780377,Lu2P4O13,5.6508
mp-780393,HoBO3,5.0472
mp-780402,Sc2Ti2O7,2.8328
mp-780500,LiMn2(BO3)2,0.2551000000000001
mp-780509,Li3Mn4(BO3)4,0.13590000000000013
mp-780511,Mn12O5F19,0.16710000000000005
mp-780520,LiMn(SO4)2,0.2205999999999999
mp-780523,LiFe(SO4)2,1.9547
mp-780534,Rb(BH)5,4.0007
mp-780579,Li3V3P8O29,1.2389
mp-780586,LiCoP2O7,0.96
mp-863861,LiCoPO4,2.3317
mp-863864,Li3V3P8O29,0.5869
mp-863866,Li3V3P8O29,1.2494
mp-863875,LiCoPO4,2.0837000000000003
mp-863906,LiNi4(PO4)3,0.005599999999999827
mp-863944,Ba5V5O14,0.7356000000000003
mp-865197,Li3V3P8O29,1.2196
mp-866606,CaSnS3,0.7014000000000005
mp-866711,FeSCl7,0.6743000000000001
mp-866716,RbLiH12Se3N4,0.9991
mp-867237,KB6(HO)6,1.6486
mp-867628,Y6Cu11O24,0.0036000000000000476
mp-868129,V2Sn4H24C8O9,3.1644
mp-990432,H6PbCI3N,1.6393
mp-997515,Li(Fe2O3)4,1.0889999999999995
mp-997531,LiFeSiO4,2.9152
mp-997534,LiVP2(HO4)2,2.1322
mvc-4646,Ca(BiO2)2,1.8612
mvc-4648,Mg(BiO2)2,1.4665
mvc-5088,Mg(SnO2)2,1.3005000000000004
mvc-5147,Mg(SbO2)2,1.5219000000000005
mvc-5214,Ca(SnO2)2,1.5293
mvc-5220,BiO2,0.4568999999999999
mvc-5233,Zn(SbO2)2,1.4268999999999998
mvc-5253,Ca(SbO2)2,1.2344999999999997
mvc-5310,VO2,0.7595999999999998
mvc-5331,SbO2,1.3299
mvc-5424,Mg(SbO2)2,2.4588
mvc-5542,Zn(SbO2)2,2.22
mvc-5581,SbO2,0.9338000000000006
mvc-5860,BiO2,0.05100000000000016
mvc-5928,WO2,1.7347
mvc-6124,Mg(MoO2)2,0.4363999999999999
mvc-6160,Ca(FeO2)2,1.7102999999999997
mvc-6191,Zn(WO2)2,0.4924
mvc-6218,Ca(WO2)2,1.2801999999999998
mvc-6227,Ca(MoO2)2,0.38560000000000016
mvc-6260,Ca(SbO2)2,2.2443
mvc-6340,Ca(MoO2)2,1.0978000000000003
mvc-6346,Ca(WO2)2,0.06059999999999999
mp-1007824,GaN,1.1047
mp-1009220,NaH,1.033
mp-1019532,BaAl4O7,4.1958
mp-1045558,MgMn2O4,0.07089999999999996
mp-10534,Sm10S19,0.4965000000000002
mp-1080192,Ti3N4,0.09830000000000004
mp-1080434,Sr2YCoO6,0.06110000000000016
mp-10810,TiAgF6,0.2911999999999999
mp-1096115,LiPd2Au,0.10390000000000033
mp-1099229,CsRbMg14O15,2.2436
mp-1100430,LiZnSb,0.6074999999999999
mp-18956,SmCrO4,0.2479
mp-19683,Th(MoO4)2,3.7356
mp-25658,Co2P3O10,0.08229999999999983
mp-27772,Nb3I8,0.041100000000000136
mp-28740,SrTi11O20,0.012199999999999987
mp-29035,Sr(YS2)2,1.8113
mp-29310,Si2H6Se,3.7464
mp-30459,ScNiBi,0.18440000000000006
mp-31626,Ta2CrO6,0.3230000000000004
mp-32028,Mn(PO3)4,0.4358
mp-32334,NiP2O7,0.06180000000000002
mp-32417,VP2O7,1.2897
mp-33234,RbO2,0.08630000000000004
mp-505139,TiH2SO6,2.5139
mp-540180,Cr3(P2O7)2,0.013399999999999856
mp-540258,Ti(PO3)4,1.9457
mp-540363,VP2O7,1.1998999999999995
mp-540416,MnP2O7,0.9913
mp-540460,Cr4(PO4)3,0.6865999999999999
mp-540467,Co(PO3)4,0.009699999999999986
mp-541600,RbLaTa2O7,2.2853000000000003
mp-545730,AgCNO,1.3014
mp-547898,Rb4CO4,0.9499
mp-549720,NbI2O,0.8338000000000001
mp-556005,ZnS,2.0467
mp-556185,RbNaTiO3,3.4599
mp-558273,Ca3SiO5,3.2783
mp-559906,U3O8,0.06729999999999947
mp-565192,CuBi(WO4)2,1.2861000000000002
mp-571416,Sr14Al8Ge3,0.046899999999999935
mp-573084,Yb2S3,1.1047000000000002
mp-625254,P(HO)3,4.1531
mp-625295,VHO3,2.1038
mp-642216,MgSiO3,5.0524
mp-647489,CdI2,2.355
mp-671855,KNbCl6,1.9232
mp-684028,Li3Bi(PO4)2,3.749
mp-694930,Na2FeSn(PO4)3,2.2909
mp-695112,Na3Zr2Si2PO12,4.3439000000000005
mp-695154,Na7Bi3P12(Pb5O24)2,3.4195
mp-695427,Na13Zr7Si5P7O48,3.7009
mp-699325,Al2CoO4,1.9934000000000005
mp-715275,Fe3O4,0.6085000000000003
mp-743872,VPH5NO6,2.3592
mp-743901,Ca2Mn7Si10H12O35,2.8581
mp-743902,SrLa4TiCr4O15,1.6639999999999997
mp-744098,VH20C2S2N6O13,3.0467
mp-744266,Sr20Fe3Co7(MoO6)10,0.9566999999999996
mp-744690,NaLi3Ti2Fe2(PO4)6,2.2378
mp-744711,ZnCrH28C6N12Cl5O8,3.4335
mp-744812,NiH48C16S8(NO7)2,3.3798
mp-744816,RbMgV5(H8O11)2,1.3558
mp-744896,PuCoH24C4N6O13,0.5439
mp-753478,BiOF,2.5707
mp-754892,Rb3ClO,0.4777
mp-756570,Rb4SnO3,1.4742000000000002
mp-760655,Li3Bi(PO4)2,3.5843
mp-761468,LiFePO4,3.6715
mp-761490,Li6V3P8O29,1.4905
mp-761498,Li6V3P8O29,1.4529
mp-761499,Li6V3P8O29,1.0602
mp-761500,Li6V3P8O29,1.0446
mp-761505,Li6V3P8O29,1.2362
mp-761507,Li6V3P8O29,1.3142
mp-761508,Li6V3P8O29,1.2115
mp-761509,Li6V3P8O29,0.7614
mp-761515,Li6V3P8O29,0.9566
mp-761520,Li6V3P8O29,1.3462
mp-761534,Li4FeP2O9,0.044300000000000006
mp-761632,Li7V3P8O29,0.5714000000000001
mp-761751,Li7V3P8O29,0.7753000000000001
mp-761757,Li8V3P8O29,0.9309999999999999
mp-763349,Li2MnF4,3.969
mp-764222,LiCo2OF3,1.7482999999999995
mp-764837,Li2VOF4,2.4813
mp-765422,Li9V3P8O29,0.8960000000000001
mp-765429,W5(O2F11)2,3.5107000000000004
mp-765489,Li9V3P8O29,1.7446
mp-765503,Li5V3P8O29,0.5847999999999999
mp-765711,Li9V3P8O29,0.5619000000000001
mp-765714,NaV24O58,0.07580000000000009
mp-765762,Li4V3P8O29,0.5385
mp-765919,VF4,2.15
mp-765952,VF5,3.3069000000000006
mp-765976,Li3V3P8O29,0.9948
mp-766066,Li3V3P8O29,0.3492
mp-766105,NaV4O10,0.8429000000000001
mp-766987,V3H8(NO4)2,1.9786
mp-767117,ZnNi9O10,2.0976
mp-767695,Li2MnSi3O8,3.2608
mp-769152,Sc(ClO4)3,4.0634
mp-769321,ZnSeO4,1.7134999999999998
mp-769981,Li4Cr3GaO8,3.1792
mp-770953,Be(FeO2)2,1.7507
mp-771248,Na2Ge2O5,2.9897
mp-771672,Li3VCr3O8,1.2581000000000002
mp-771735,TaFeO4,2.0926
mp-774270,Li6V3P8O29,1.1338
mp-774271,Sr21Fe14O47,0.04430000000000023
mp-774273,Li6V3P8O29,1.4243
mp-774277,V8CuO20,0.5263999999999998
mp-774278,V12Cu2O29,0.5762
mp-774437,Li5La3Nb2O12,3.4928000000000003
mp-775185,LiVSiO4,2.4649
mp-775232,LiCr4(PO4)3,1.2445999999999993
mp-775320,Li4V3O8,1.723
mp-776670,LiMnF4,1.9824
mp-777038,LiMnPO4,3.2826000000000004
mp-777078,Li2VF6,2.3686
mp-777143,LiMnP2O7,0.3722000000000001
mp-777414,Na7Li3V10O30,3.1505
mp-778924,ZnSeO4,2.0896
mp-779810,Fe5O3F7,0.6414
mp-779859,Li6MnFe5(BO3)6,2.8303000000000003
mp-780737,SrTaNO2,1.3126999999999995
mp-780917,Mn6O5F7,0.05310000000000015
mp-8134,UO3,1.6376000000000008
mp-8218,PrAlO3,3.038400000000001
mp-8373,GeP,0.0945999999999998
mp-8402,RbMgF3,6.9384000000000015
mp-849402,LiCo2OF3,2.3021000000000003
mp-849415,LiFeP2O7,1.4159000000000002
mp-851109,Sr9La5Br33,2.8755999999999995
mp-977414,ZnCu2SiS4,1.2780999999999991
mp-981547,PrH3,0.1593
mp-998298,CsSnF3,3.1038
mvc-3478,YNiF5,4.0821000000000005
mp-1015567,CrN2,0.2706000000000001
mp-1016063,CrN2,0.1766
mp-1029490,Sr3B3N5,2.2444
mp-11108,SrP3,0.0138000000000007
mp-1180165,NaO2,0.02760000000000007
mp-1180547,LiAlH4,3.9431
mp-1217720,Tb2Mn3Sb3O14,1.1296999999999997
mp-1219905,Pr5S2N3Cl2,0.6945999999999994
mp-1228482,Ba2Ti5(Bi2O9)2,1.3680000000000003
mp-13923,SnPS3,2.1282
mp-18463,RbZnPO4,3.7027
mp-19033,WO3,1.4239
mp-30009,KrF2,2.9048000000000003
mp-30311,Zn3(PS4)2,2.4186000000000005
mp-35647,Zn2PtO4,0.6309
mp-4812,Zn4B6O13,3.4078000000000004
mp-504340,LiSb(PO3)4,4.1843
mp-505804,Ti2CuSb3,0.01729999999999876
mp-550798,Li4CO4,2.9837
mp-554138,Pr2SbO5F,3.5080000000000005
mp-556218,SiO2,5.8913
mp-556296,BaS3,1.0260999999999996
mp-556788,SiO2,4.7884
mp-561055,RbB3O5,5.6999
mp-585189,LiMn4(PO4)3,3.3405
mp-606393,NbBr3O,1.9611
mp-624769,P2WO8,2.5304
mp-625108,H5NO2,1.5646
mp-625145,H7ClO3,4.1696
mp-625148,H3ClO5,5.1544
mp-625159,H3ClO5,4.888
mp-625600,Mo(HO2)2,3.217
mp-626620,RbHO,3.3341000000000003
mp-628647,TlHg3As2Cl3,0.8915999999999997
mp-628690,SbN6Cl,0.5765
mp-628715,KEuPSe4,0.054600000000000204
mp-628726,Sr(AlCl4)2,5.2875
mp-628782,V3Pb5ClO12,2.7954
mp-628951,V2P2O9,1.6511000000000002
mp-630329,PbSeO3,3.3267999999999995
mp-630867,RbLiNd2(MoO4)4,3.4113
mp-6318,KLiSO4,5.3179
mp-675324,BaCO3,4.1101
mp-675976,KPO3,0.7652000000000001
mp-676074,Na2ThF6,6.5873
mp-676227,Nd2Th2O7,2.6771
mp-676240,Ti2CdO6,2.128
mp-676261,Y3NbO7,2.1545
mp-676278,Ca2SiO4,4.053000000000001
mp-676311,Nd2Zr2O7,2.3629999999999995
mp-676319,Dy2Zr2O7,2.7425999999999995
mp-676325,NbBi7O13,1.5781999999999998
mp-676348,NbAg7S6,0.2857000000000003
mp-676362,HIO4,1.5685
mp-676365,Li2TiO3,2.338
mp-676378,Sr6Ta2O11,2.3999
mp-676422,Ta2O5,3.2084
mp-676456,Sr6La2Ta3Al5O24,3.5058000000000007
mp-676461,Ca2La2MgTi3O12,2.014900000000001
mp-676467,Na3Al2P2O8F3,4.7401
mp-676540,TlSbS2,1.2672999999999996
mp-676556,Sm2Zr8O19,2.2727
mp-676563,Ta4Cu2O11,1.2731
mp-676572,NdPb6F15,4.3396
mp-676581,Ag2CO3,0.5938000000000001
mp-676598,TlPbCl3,2.6017
mp-676605,Y6O5F8,5.0318
mp-720515,HN,4.3592
mp-720572,RbH3(SeO3)2,3.7885
mp-720644,PH9(NO2)2,4.8995
mp-720721,SiH18C4N8(O2F3)2,5.474
mp-720739,ZnP2H6O5,4.7801
mp-754445,Li2Ti(BO3)2,2.7928
mp-758233,Nb9PO25,2.0823
mp-758270,Li3Ti(PO4)2,0.21030000000000013
mp-758272,Zr4N2O5,2.2769999999999997
mp-758287,Li3Ti2(PO4)3,0.3720000000000008
mp-758317,YTa3O9,2.1427
mp-758331,NdTa3O9,2.2516
mp-758379,Y11Ta5O28,0.9859
mp-758413,Na2CdO2,0.208
mp-758447,LiTi(PO3)4,0.21700000000000008
mp-763262,Li2VGa3O8,2.511
mp-763332,Li3MnF5,3.617
mp-763340,Ti3Fe2P6WO24,0.07519999999999971
mp-763342,FeOF,1.013
mp-763350,V3O5F,0.5902000000000003
mp-763369,Li2Co2Si2O7,2.3439
mp-763375,V2NiH6(NO3)2,2.206
mp-763376,Li2Co(Si2O5)2,3.2712000000000003
mp-763379,LiV(PO3)3,2.5322
mp-763381,LiV(PO3)4,2.1908000000000003
mp-763389,Li2Co(SiO3)2,3.2331
mp-763392,LiP4WO12,3.7489
mp-763394,LiV(PO3)4,2.5203
mp-763395,LiV4(PO4)3,1.5719999999999996
mp-763397,LiV(PO3)3,2.3404
mp-763400,LiV2(PO4)3,0.6586000000000001
mp-763406,Li2Co2(SiO3)3,2.6215
mp-763408,Li3Co2(CO3)4,0.6729999999999999
mp-763409,LiVP2O7,2.129
mp-763410,LiP2WO8,3.5274
mp-763419,FeOF,1.3161
mp-763421,Li2MnF4,3.9074
mp-763431,LiMn5O3F5,0.5714000000000001
mp-763433,Li2MnF4,3.7437
mp-763435,V2PH10NO11,2.0892
mp-763436,FeOF,0.8246000000000002
mp-763438,Li2VF6,2.0805
mp-763439,Li3VF6,2.4726
mp-763464,Zr4MnO9,2.9462
mp-765846,LiMnPO4,3.2595
mp-765949,VF5,3.148
mp-765954,LiP2WO8,2.3080000000000003
mp-765956,LiV(OF)2,2.26
mp-765967,WOF4,4.8740000000000006
mp-765969,VFeP2(HO5)2,1.123
mp-765975,VF5,3.1751
mp-765990,FePO4,2.5497
mp-765993,V2Fe3Sb(PO4)6,0.7406999999999999
mp-766031,NaMgH4SO6F,5.0654
mp-766057,V4OF11,1.5669
mp-766068,LiNiP2O7,0.09389999999999987
mp-766070,LiNiPO4,3.0271
mp-766103,Li7Zr3Nb(TeO6)4,2.3669
mp-766111,Mn6O5F7,0.17169999999999996
mp-766114,Li4MnFe3(PO4)4,3.7836
mp-766118,BiP2O7,0.024299999999999992
mp-766135,Sr6Bi2O11,1.0353
mp-766139,Li2V2F7,0.3709999999999999
mp-766153,LiNiBO3,3.27
mp-769931,Tm3TaO7,3.3792
mp-770049,Li5Fe2P2(CO7)2,1.4239
mp-770050,CdCoO3,0.13310000000000022
mp-770058,Li2CrFeO4,1.9275
mp-770078,LiMnPCO7,0.9307
mp-770079,Rb5FeO4,1.5655
mp-770085,Li4Cr3FeO8,2.3743000000000003
mp-770091,Li4AlCr3O8,3.2438
mp-770100,Mn2(SO4)3,0.7488000000000001
mp-770109,Li2Ni2(SO4)3,3.5479000000000003
mp-770125,BaLaCl5,3.8801
mp-770126,Rb3FeO3,0.9688
mp-770144,Na5LiFe2P2(CO7)2,3.5416
mp-770145,Li4CrFe3O8,1.9208
mp-770147,Li3FePCO7,3.3393
mp-770151,Li2VBO4,2.3718
mp-770967,Li2MnP2O7,4.0774
mp-771427,V2P4H3O16,1.145
mp-773279,Mn3Fe(PO4)4,0.40380000000000016
mp-773280,TiMn5O12,1.3989999999999998
mp-773310,V2CoO6,2.0888
mp-773314,Li4MnFe3O8,0.5739000000000001
mp-773327,Li2VP2O7,2.6718
mp-773333,CrBiO4,1.1178999999999997
mp-773345,VCrO5,1.1569
mp-773352,Li2MnFe(PO4)2,3.7761
mp-773366,P2WO7,3.0944
mp-773370,Li2Si2NiO6,3.5469
mp-773383,V2Cr3Sb3O16,1.4335000000000004
mp-773385,Li3FeSiO5,2.2539
mp-773392,Hg2W2O7,2.3069
mp-773397,GeWO4,2.4469
mp-775837,Sc2O3,4.1645
mp-777630,Li2CrP2O7,2.201
mp-777631,LiMn2F5,3.2776
mp-777633,LiCrP2O7,2.4682
mp-777634,Co3OF5,0.15470000000000006
mp-777666,Li2V3CrO8,1.1225
mp-777673,Li2FeF4,3.6434
mp-777674,LiFeF4,3.6467
mp-777675,Li3V5O12,1.2119
mp-777676,LiVF3,2.3764000000000003
mp-777677,LiFeF4,3.0836
mp-777678,LiFeF4,4.0954
mp-777679,LiFeF4,3.3818
mp-777685,Ti3Fe2Cu(PO4)6,0.12559999999999993
mp-777692,V6O7F5,0.5170000000000003
mp-777696,LiCrP2O7,2.805
mp-777698,V2O3,1.4363
mp-777699,V3O5F,0.3631000000000002
mp-777704,Li2Mn3F8,2.7893
mp-777710,LiMn2F5,3.1819
mp-777711,LiFeBO3,3.1611
mp-777718,Li2MnF4,3.8710000000000004
mp-777719,LiV4O5F7,1.2058
mp-777724,Mn6O5F7,0.13250000000000006
mp-777738,Al(HO)3,4.9382
mp-777749,Y2Sb2O7,1.9164999999999992
mp-777780,Li3MnF6,1.3675
mp-777781,Li2FeF4,3.3033
mp-777787,HoAsO4,3.6678
mp-777807,Li2VF5,2.0367
mp-777814,Na6Sn2O7,1.3569999999999998
mp-777851,Li3Bi(BO3)2,2.9357
mp-777860,Li2FeF6,0.1775000000000002
mp-850875,Fe2OF3,1.3410000000000002
mp-850901,Fe3(O2F)2,0.003900000000000015
mp-850915,LiFe2O2F3,1.641
mp-850923,TiV(PO4)2,0.1504000000000003
mp-850936,Ni6OF11,0.8854
mp-850937,VF4,1.6657
mp-850950,LiMn3(BO3)3,0.15680000000000005
mp-850958,Li4Mn3Fe(BO3)4,2.9509000000000007
mp-850959,Li5Mn6(BO3)6,0.1641999999999999
mp-850961,LiFe2OF5,2.1569
mp-850969,LiMnSiO4,1.5692
mp-850973,V3O5F,0.32989999999999986
mp-850979,V3(O2F)2,1.0171
mp-850980,Li2Mn3(BO3)3,0.14810000000000012
mp-850982,LiCo3(OF3)2,0.18589999999999995
mp-850986,Li6Co6O5F11,0.2398
mp-850988,Co3(OF2)2,0.02470000000000017
mp-850989,V2(OF)3,1.7615
mp-866883,Ca2SnS4,1.3308
mp-991676,NbCu3Te4,0.9408000000000004
mp-604245,BeH8(NF2)2,6.5452
mp-676666,Rb2CeO3,2.1298000000000004
mp-676693,KCN,1.2299
mp-676712,ReSeCl,1.5368
mp-676778,KBiF4,4.1944
mp-676804,Ho3TaO7,3.5439999999999996
mp-676855,In(HO)3,1.9486
mp-676950,Be(GaO2)2,2.4852
mp-676956,Zn8B4H3O15F,3.0045
mp-676979,Mg2TiO4,3.2670000000000003
mp-677028,RbBiF3,1.3584
mp-677055,ScCuSe2,0.6572000000000005
mp-677065,TaOF3,2.0799
mp-677193,Mg3BH2O5F,4.010299999999999
mp-677238,Th10N9F13,2.0872
mp-677283,Sr4NdNb2Al3O15,2.5183
mp-677384,NaLaH2S2O9,4.6972000000000005
mp-720857,SbH3SO6,4.400499999999999
mp-720869,H12C4N2O9,3.2245
mp-720904,BaH8PtC4(NO)4,1.5012
mp-721047,CaH8(ClO2)2,5.1371
mp-721180,UH14(NO2)4,2.2385
mp-721182,PH11(NO2)2,5.3405
mp-721299,H13S2N3O8,5.124
mp-721426,NaPH7O6,5.1139
mp-721686,SnH4(ClO)2,3.8242
mp-721702,Zn2AsHO5,1.9575
mp-758587,Li2CuPO4,1.4144000000000003
mp-758635,UH12S2O15,2.2030000000000003
mp-758655,H8C2BrN,4.6619
mp-758660,MgP2(H8O5)2,5.5068
mp-758675,TeH14C2(NO2)4,2.7712
mp-758780,LiBiP2O7,4.3511000000000015
mp-758784,YZr4O9,0.07570000000000032
mp-758797,LiCu(PO3)3,0.17389999999999994
mp-758829,Nb2OF8,4.2124
mp-758880,LiCuPO4,0.3797999999999999
mp-758899,Sb2OF8,2.1564
mp-758933,B8O,2.3536
mp-759028,Li3Sb3(PO4)4,3.232
mp-759071,LiSb(PO3)4,4.3011
mp-759128,Li3Sb2(PO4)3,3.6068
mp-759141,LiBi(PO3)4,4.4313
mp-759185,LiSb(PO3)4,3.7298
mp-759198,Li2AgF3,1.8653
mp-763442,LiP4WO12,3.9279
mp-763443,Li2Co(SiO3)2,2.9687999999999994
mp-763449,Li4V7(PO4)6,1.9388999999999996
mp-763450,Li3V3(PO4)4,1.8507
mp-763454,LiMn2OF3,1.3080000000000005
mp-763455,LiP4WO12,3.7305
mp-763456,LiP4WO12,3.8488
mp-763457,LiP2WO7,3.8285
mp-763463,LiP4WO12,4.170400000000001
mp-763465,Li2CoSiO4,2.6839000000000004
mp-763466,LiP4WO12,4.1522
mp-763470,Li2CoSiO4,2.8271
mp-763471,LiFe2C2O7,1.5355
mp-763472,Li4VP2O9,1.3585
mp-763474,LiPWO5,2.4877
mp-763478,LiP2WO7,3.504
mp-763483,LiP2WO8,3.6562
mp-763484,Fe4OF7,1.7312
mp-763485,Li2CoSiO4,2.6928
mp-763494,Li3V2(O2F)2,0.9199000000000002
mp-763500,LiCoSiO4,0.8915000000000002
mp-763506,TiFe2O5,1.9330000000000005
mp-763508,V(CO3)2,1.1404999999999998
mp-763509,LiTiVO4,0.31169999999999964
mp-763512,Li2CoSiO4,2.7693000000000003
mp-763513,LiV(PO3)3,2.6902
mp-763516,LiCoSiO4,1.3321
mp-763531,LiP3(WO6)2,2.5008000000000004
mp-763541,KMn2O4,0.3195999999999999
mp-763544,LiVPO5,2.6757
mp-763545,LiVPO5,1.6680000000000001
mp-763548,LiP3W2O13,3.1484
mp-763549,LiMn(CO3)2,1.4156
mp-763550,Li3P2WO8,3.9891
mp-766163,TiSn9O20,1.1262999999999996
mp-766168,Ti4SnO10,1.7655000000000003
mp-766175,RbInBP2HO9,4.0389
mp-766176,LiSiBiO4,3.3406
mp-766179,LiSi3BiO8,3.4775
mp-766196,LiSiBiO4,3.3612
mp-766204,ZnPH5C2N4O3,4.6202
mp-766207,Zr6Nb2O17,2.7757
mp-766254,Cu(PO3)3,0.3478999999999999
mp-766256,YTmO3,4.0595
mp-766259,SnH10Cl4O5,3.2828
mp-766267,Y7TmO12,4.062
mp-766269,ZnPH5C2N4O3,4.5292
mp-766275,Ca2Bi10O17,1.6668999999999996
mp-766276,Ba2In2O5,0.4077000000000002
mp-766287,BaCa2I6,3.0889
mp-766293,Al11AgO17,3.0191000000000003
mp-766313,BaCa2I6,3.6008000000000004
mp-766324,BaCaI4,3.14
mp-766341,NaSb5O13,0.7792000000000003
mp-766345,Y5O4F7,5.2002
mp-766348,BaCaI4,3.6308
mp-766350,LiSiBiO4,3.0152000000000005
mp-766351,Ba2CaI6,3.551
mp-766352,BaCa2I6,3.6892
mp-766387,RbAl11O17,4.7304
mp-766391,Ti(Sn2O5)2,2.0473
mp-766429,SiH18C2N8(OF3)2,4.9958
mp-766447,Li2Cu4S3,0.7526000000000002
mp-766448,NaSnPHO4F,3.5919
mp-766453,Li2Cu4S3,0.004600000000000826
mp-766467,LiCuS,1.2911
mp-766480,LiCuS,1.3302
mp-766505,RbH2O2F,4.0153
mp-766506,Li3CuS2,2.0526000000000004
mp-766558,NaMn3O6,0.5113000000000001
mp-770154,Li3V3(BO5)2,1.0658999999999996
mp-770156,Li4MnCrO6,1.0507
mp-770159,Sr7W4O19,3.0853
mp-770160,Li2Co2(SO4)3,2.7030000000000003
mp-770162,Li2FePCO7,2.4693
mp-770164,V2SO8,1.8925
mp-770166,Li2FePCO7,2.4529
mp-770167,Li2FePCO7,2.4491
mp-770172,Li4MnCrO6,1.0387
mp-770178,Li4MnCrO6,0.9886999999999996