task_id,pretty_formula,band_gap
mp-764981,Li4Mn3OF8,2.1687000000000003
mp-764996,Li2V2OF6,1.9026
mp-765018,Li4V3P8O29,1.0256
mp-765139,VCrP2(O4F)2,0.9555
mp-766748,Li2VSi4O11,0.9103
mp-767295,Li3ZnPCO7,4.3098
mp-767320,Li3Co2(SiO4)2,0.4041999999999999
mp-767625,LiVF4,2.2786
mp-767631,Li3VF6,2.5271
mp-767636,LiMn2O3F,0.4117000000000002
mp-767641,LiV2F7,2.6584
mp-767648,Li2SiNiO4,3.4759
mp-767649,Li2VF6,2.0043
mp-767710,Li2VP2O7,2.455
mp-767716,LiVSi3O8,2.1659
mp-767721,Li2Mn(CO3)2,3.6796000000000006
mp-767725,Sr2CrCO3F5,3.3819
mp-767728,Li6Mn(OF)3,2.1
mp-767832,LiFe2(PO4)2,1.6391999999999998
mp-767877,Li2Si4NiO10,3.8894
mp-767948,LiNiP2O7,0.04220000000000002
mp-768256,Li4Bi2C4SO16,1.9199
mp-770001,Mn3CrO8,0.665
mp-771920,Li4Fe3CoO8,1.6510999999999996
mp-775015,Li2Cr3NiO8,0.7266999999999997
mp-775663,TiMn(PO4)2,1.7391
mp-775804,Li3SbS3,2.358
mp-775861,Zr2N2O,1.6810000000000005
mp-775866,Zr2N2O,1.7744999999999995
mp-775987,Ti3Fe2Ni(PO4)6,1.9837
mp-778604,Li3BiO3,2.8422
mp-781992,PH8N4Cl,5.000299999999998
mp-849796,NaZn4H18SClO16,3.2778
mp-850017,LiFeF4,3.4418
mp-850487,Li7VGeO8,2.7391
mp-850489,CrPO4,1.9955
mp-850532,LiSn2(PO4)3,2.9236
mp-850763,LiCrP2O7,1.9637
mp-850771,Li8Mn7Fe(BO3)8,2.9010000000000002
mp-850868,NbH8N2O2F5,4.5788
mp-850881,Li2Mn3(BO3)3,0.7268999999999999
mp-850888,LiV2P4(HO8)2,1.0149
mp-850909,Li3Mn2(PO4)3,0.5005
mp-850913,LiVOF3,1.6565
mp-850921,LiMn2(BO3)2,0.2430999999999999
mp-850930,Li3MnF5,4.3429
mp-850938,Li2V2(SO4)3,3.3902000000000005
mp-866847,CaSn2S5,1.6913999999999998
mp-867077,TiMnH12(OF)6,2.2193
mp-9720,Rb3BP2,1.5884
mp-9726,SrBeF4,7.5245
mp-977148,LiBeH3,4.3798
mp-977298,LiBeH3,4.426
mp-977351,Ac2S3,3.0275000000000003
mp-979271,TbAgSe2,0.4720999999999997
mp-9842,RbSm(CO3)2,4.1306
mp-989645,YWN3,1.4073000000000002
mp-9903,U3(SiNi)4,0.0010000000000012221
mp-997052,RbAgO2,1.0290000000000001
mvc-12404,TiO2,2.5323
mvc-4638,AlV2O4,0.3449
mvc-4845,W2O5,0.3114999999999997
mvc-5096,WO3,1.6755
mvc-5444,MnO2,0.02080000000000015
mvc-5694,Zn(MoO2)2,2.233
mp-1178268,GdAlO3,1.9038000000000004
mp-12866,SrSnO3,1.6118
mp-13064,Dy2O3,4.1995000000000005
mp-13456,ZnS,2.0416
mp-13836,U(RhO3)2,0.4231999999999996
mp-15074,Sr(PIr)2,0.4432
mp-18888,Sr2CdWO6,3.5122
mp-26725,LiSnPO4,2.5567
mp-31755,Ta2FeO6,2.3539000000000003
mp-4681,NaNbO3,2.3639
mp-557453,La2Zr2O7,0.07469999999999999
mp-560203,SiO2,5.4814
mp-561118,ZnS,2.0338
mp-585383,Li2V(PO4)2,1.4940999999999998
mp-634855,InAgS2,1.21
mp-634900,SrUO4,2.0762
mp-634979,TbOF,3.9673
mp-635257,NiAsO4,0.04590000000000005
mp-635966,MoO2,1.3733000000000002
mp-6361,NaSr3NbO6,3.2962
mp-644092,Na2LiAlH6,2.6364
mp-648053,NaPO3,4.7410000000000005
mp-673656,Y2Se3,1.5547
mp-673658,H2O,5.0638000000000005
mp-674176,Li2PbO3,0.15359999999999996
mp-677103,RbHF2,6.6658
mp-685992,Li2CrCl4,0.43169999999999975
mp-686102,Tl3In2Se5,0.6144000000000003
mp-686736,Sr5Li25La7(BiO6)8,1.9155
mp-695836,KSbO3,0.6840999999999999
mp-698018,LiAlSi2H2O7,3.9817
mp-698440,SiBHC3NCl2,0.7866
mp-698565,Fe2SiO4,0.9435000000000002
mp-698573,FeBi25O39,2.1319
mp-698589,Ga2CoO4,0.7456999999999994
mp-698941,Nd5Fe5As5O4F,0.11980000000000054
mp-699501,Ba(HO)2,3.745
mp-699581,V3P4PbO17,1.7321
mp-703320,Sr16Fe6Co2Mo8O45,0.5607000000000002
mp-703348,UP3HO11,2.522
mp-744217,NiH12(ClO6)2,0.10029999999999983
mp-744434,YNiH3SO7,4.1385000000000005
mp-7482,RbHgF3,0.6523999999999999
mp-752401,Rb2ZrO3,3.1698
mp-752539,Cs2Ba2O3,1.4585
mp-752641,Lu3TaO7,3.3662999999999994
mp-752689,Ba2Na2O3,2.3032000000000004
mp-752833,PH2NF2,4.713
mp-753054,KI(OF)2,3.7254
mp-753661,SbOF,2.9532000000000003
mp-757419,LiTi(SiO3)2,0.1631999999999998
mp-757542,Li3Ti(Si2O5)3,0.14139999999999994
mp-757559,LiBiP2O7,4.3996
mp-757688,BaNb8O14,0.33809999999999985
mp-757982,In(HO)3,2.3237
mp-758457,LiTi(PO3)4,0.0748000000000002
mp-758486,Li2CuP2O7,0.4907999999999997
mp-758497,LiCuPO4,0.2894999999999999
mp-758542,LiCuPO4,0.038000000000000256
mp-758554,Li2AgF5,0.7961999999999998
mp-758837,LiCu(PO3)2,1.2716000000000005
mp-761759,SbOF3,2.5639
mp-762337,Li2CuF5,0.11970000000000015
mp-763252,LiSbWO6,2.7405
mp-764315,VO2F,1.7622999999999998
mp-764317,LiMn2F5,3.3819999999999997
mp-764407,Li7VO5F,1.9464
mp-764444,Li3V2(O2F)2,0.95
mp-764804,Li3MnFeCo(PO4)3,2.2681
mp-764890,FeOF,0.3609
mp-764908,Li3VO3F,1.3617
mp-764917,Li3VO3F,1.4337999999999995
mp-765015,Li4V3P8O29,0.8057999999999998
mp-765017,Li4V3P8O29,0.4296
mp-765032,Li6V3P8O29,1.3947
mp-765043,Li4V3P8O29,0.3228
mp-765045,Li5V3P8O29,0.7646
mp-765512,Li2CuF5,0.4738
mp-765520,Li4V5O9F,1.673
mp-765867,LiV3(O2F)2,1.2103000000000002
mp-765955,Li2CuSiO4,0.08440000000000003
mp-765980,Li4CuSi2O7,0.022299999999999983
mp-766804,VCrP2(HO5)2,0.6234999999999999
mp-767022,Cr(PO4)2,0.2264
mp-767123,LiMn3(O2F)2,0.4081999999999999
mp-767127,Li2VCrP2(HO5)2,2.2493
mp-767651,Li2SiNiO4,3.4006000000000003
mp-767656,Nb4VO12,1.8576
mp-767685,LiMn2P2HO8,3.3759
mp-767689,LiVCrP2(O4F)2,1.3514
mp-767700,LiVCrP2(O4F)2,1.2648
mp-767706,LiV2F7,2.0983
mp-767849,Li11Mn12(BO3)12,0.007400000000000073
mp-768045,V5BiO10,0.5003000000000002
mp-768269,Li3SbS4,1.5048999999999997
mp-768329,LiFe2(PO4)2,1.4736000000000002
mp-768330,Sn2P2O7,2.4065000000000003
mp-768385,Ba2YBr7,3.9604
mp-768395,Na4Sb2C4SO16,1.226
mp-768416,BaYBr5,3.819
mp-774624,LiCuBO3,0.2359
mp-775735,Sr2CoCO3F5,0.9266
mp-775746,Li2U(WO5)2,1.4931
mp-775817,Li5SbS4,1.5475
mp-775820,Ti2N2O,0.9737
mp-775821,Ti2N2O,0.9763000000000002
mp-775822,Zr2N2O,1.6751999999999998
mp-775823,Zr2N2O,1.6481
mp-775824,Zr2N2O,1.6551
mp-775829,Ti2N2O,1.0598999999999998
mp-775843,Zr2N2O,1.6504000000000003
mp-775844,Zr2N2O,1.5814000000000004
mp-775849,Zr2N2O,1.6698000000000004
mp-775932,Ba2YI7,2.4651
mp-776427,ZrO2,3.5895
mp-776708,LiV4O5F7,1.2840999999999998
mp-777323,Li3Fe2(CoO4)2,0.004100000000000215
mp-777512,Mn3(O2F)2,0.040000000000000036
mp-777683,LiFeF3,3.0421
mp-777861,Fe10O11F9,0.3198000000000001
mp-7784,SbAsO4,3.0829
mp-778411,V2CoO6,1.4907
mp-778533,Li2MnF5,2.519
mp-779592,GdOF,3.2384
mp-782654,Li5Mn6(BO3)6,0.15989999999999993
mp-782665,LiVF3,2.5628
mp-782703,V4OF11,1.5199
mp-782708,V4(OF3)3,1.5231
mp-782712,Li3V4(OF3)3,1.0761
mp-782725,MnOF,0.12150000000000015
mp-782821,LiV2(OF)3,0.8960000000000001
mp-7980,Ba3SrTa2O9,3.3693
mp-8479,Tl4SiS4,1.9549000000000003
mp-8496,Sr2SmNbO6,3.1476
mp-850180,Li4Fe3OF8,2.6677
mp-850226,Li8Mn7Fe(BO3)8,2.9057000000000004
mp-850369,LiVP2HO8,1.3494000000000002
mp-850375,Li8Mn3Fe5(BO3)8,2.8502
mp-850745,LiFe4(BO3)4,1.4043000000000003
mp-850764,LiVP2HO8,1.4187
mp-850766,LiV2P4(HO8)2,0.9817
mp-850774,Li3V4(OF3)3,0.3540000000000001
mp-850775,Li7Mn8(BO3)8,0.2685
mp-850928,Li9Nb7V12O48,1.0234000000000003
mp-850960,LiMn(PO3)4,1.1233
mp-851000,Li9Mn7Cr12O48,0.07250000000000001
mp-945184,YCuTe2,0.14469999999999938
mp-9622,Tl4SnS3,0.6793999999999993
mp-9640,SrCu(SeO3)2,0.4078999999999999
mp-9660,Sr2Cu(BO3)2,0.4861
mp-979041,Tm(AlC)3,0.057500000000000114
mp-982366,Tb2S2O,2.5113000000000003
mp-983597,Sm3SbO3,0.9897
mp-998457,CsSnF3,3.7522
mvc-12040,CrO2,0.12249999999999996
mvc-12050,NiO2,0.35619999999999985
mvc-12077,VO2,0.6766000000000001
mvc-12108,CaMn2O4,1.524
mvc-14348,MgCrF4,3.3472
mvc-4354,SiWO4,2.3711
mvc-4364,BiO2,0.9408
mvc-4486,Sb2O5,0.05379999999999985
mvc-4604,Al(CoO2)2,0.2497999999999996
mp-1042954,MgSn(GeO3)2,2.2264000000000004
mp-1080355,CeSe2,1.0136999999999996
mp-17648,Yb5Si3SO12,0.10210000000000008
mp-18834,SrMoO4,3.8074
mp-19665,NaCoPO4,2.6916
mp-30030,Zn6Ni7Ge2,0.055500000000000334
mp-4157,Sr(NO3)2,3.7142
mp-546633,KClO4,5.127999999999999
mp-5616,Sr2P2O7,5.1125
mp-567278,Sr(Si3N4)2,3.208
mp-625686,H4N2O3,4.8195999999999986
mp-634381,V2Zn2O7,2.0231000000000003
mp-669509,Gd2S3,0.7560000000000002
mp-672237,PbO,1.5392
mp-674325,Rb4CO6,0.427
mp-674644,Bi2O3,0.6235999999999997
mp-676410,LuAgS2,0.7313000000000001
mp-6858,RbCS(OF)3,5.7004
mp-694873,SrLaNiRuO6,0.3948999999999998
mp-694957,KMn4O8,0.01839999999999997
mp-696089,ZnH20S2(NO7)2,4.6715
mp-696193,NiH2(SN)4,0.9638999999999998
mp-696360,Ca2Cu2Si3(HO3)4,0.5606999999999998
mp-696416,NaSi3BO8,5.1508
mp-696467,UH2Se2O9,0.4764
mp-697018,SrZnP2(HO4)2,0.3123
mp-697683,PH8N3O2,4.5076
mp-697742,MnP2O7,1.069
mp-7094,ReAgO4,2.315
mp-741706,V2CuO6,0.2016
mp-743581,VH4NO3,3.2319
mp-744025,Sr8Mg3Fe(MoO6)4,9.999999999976694e-05
mp-7499,Tl2Sn2S5,1.3993000000000002
mp-751967,V2NiP2H6O13,1.4936000000000005
mp-752554,Y2HfO5,4.268599999999998
mp-752730,Ba2GeO4,3.9678
mp-753351,Ba2CaI6,2.9464
mp-753716,BaCa2I6,3.3853
mp-753822,La2Se2O,2.1536
mp-754021,BaYBr5,3.1242
mp-754453,LaTiNO2,0.5628999999999991
mp-754667,BaSr2I6,3.6058
mp-755771,Sr3(AsO4)2,3.7327
mp-7593,RbLiF2,6.1578
mp-759378,Nb3Tl3O10,0.5236000000000001
mp-759901,Li3CuF6,0.8084
mp-761391,LiCrPO4,2.8257000000000003
mp-764214,Li7VO5F,1.8857
mp-764304,Li4Fe3TeO8,1.7733000000000003
mp-764311,Li5Cr3NiO8,2.9590000000000005
mp-764410,MnFeCo(PO4)3,0.7937000000000001
mp-764455,Co6OF11,0.6547000000000001
mp-764499,Na3MnO3,0.8870999999999998
mp-764560,Na5CrO4,0.9294000000000002
mp-764581,Li2VFeP2(O4F)2,1.7939
mp-765383,LiV3O5F3,0.7426000000000001
mp-765384,LiMn2F7,1.9232
mp-765385,LiV(CO3)2,1.8899
mp-765387,LiV(CO3)2,1.9825
mp-765394,LiNiPO4,3.2172
mp-766756,Mn2CrO4,0.34850000000000003
mp-766760,Li2NiP2O7,4.2423
mp-767055,LiNiP2O7,0.07269999999999999
mp-767058,Li2Cr(Si2O5)3,1.2948000000000002
mp-767083,LiMn2(PO4)2,0.10029999999999983
mp-767134,Sn2P2O7,2.8862000000000005
mp-767194,Li4Ti11O24,2.1514
mp-767629,LiVCr(P2O7)2,1.4875
mp-769551,V9PO25,0.9107
mp-769557,LiMnNbO4,0.5886999999999998
mp-769560,Li2TiV3O8,0.7328999999999999
mp-772595,NaSiSbCO7,2.8386
mp-772825,Ta2BeO6,3.371
mp-773576,LiZn2Fe9O16,1.5292
mp-774164,Li2V3SnO8,1.1648999999999998
mp-775302,Li2Cr(Si2O5)3,1.2553
mp-775377,Li3V6O13,0.2241
mp-776758,Li2Fe3F8,2.9908
mp-776762,LiVF5,1.9967
mp-776766,LiFeF3,3.2909
mp-776767,Li2VF4,0.31779999999999964
mp-776770,LiFeF5,0.4237000000000002
mp-776785,Li2Fe(BO3)2,0.11149999999999992
mp-776786,VOF,1.4477000000000002
mp-776802,LiFeF3,3.4841
mp-776803,LiFeF4,3.5553
mp-776807,Ti5Mn3O16,1.4194999999999998
mp-776809,Li2Mn3F8,3.4296
mp-776810,Li2FeF5,3.8394
mp-776890,Rb2O,0.9376
mp-777684,LiFe2F5,2.6362
mp-778394,Li2MnF6,2.6841
mp-778415,Li32Mn3Cr13O48,0.9846999999999996
mp-778492,Na6Ti2O7,2.6342
mp-778621,Li32Ti3Cr13O48,1.0616
mp-778654,Li4MnFe3(BO3)4,3.1594999999999995
mp-780218,Na5LaO4,2.069
mp-781861,Nb2CdO6,3.4374
mp-781955,Li2Mn3(BO3)3,0.1837
mp-8154,La2Ti2O7,2.9172
mp-8230,Zn(PO3)2,4.6635
mp-8248,Rb2TeO3,3.5879
mp-8323,Dy2S2O,2.1699
mp-8422,Sr(AlSe2)2,2.9755
mp-850081,Li4Mn7(PO4)6,2.9061000000000003
mp-850085,LiMnP2O7,1.6377
mp-850108,Na3CoO3,0.3249
mp-851283,LiFeSiO4,2.7299999999999995
mp-853172,Li2VF4,2.6202
mp-853189,V3(PO4)2,2.3649000000000004
mp-9275,Th2Ta6O19,3.2316000000000003
mp-9323,Tb2S3,0.5791000000000004
mp-9344,TiTlCuTe3,0.027900000000000702
mp-9427,NaYP2O7,5.2806
mp-943492,LiFeSO4F,4.1059
mp-962058,YSeCl,1.8963
mp-966591,Ca(BH4)2,5.4941
mp-978857,SrHgO2,2.2579
mp-978920,Tb2Be2O5,2.1983999999999995
mp-978985,SnBr2,1.7809
mp-9815,TaTl(CuS2)2,1.9468
mp-983519,SnH22C6(NCl2)2,4.2924000000000015
mp-9843,Sr3(AlP2)2,1.3371000000000004
mp-989603,LaMoN3,0.8109999999999999
mp-989609,YWN3,1.1225999999999998
mvc-11563,CaV2O4,1.4945000000000004
mvc-11640,Y(FeO2)2,0.038699999999999964
mvc-11995,Ca(CoO2)2,2.1478
mvc-15814,TiZnF5,0.22470000000000034
mvc-3807,Ca2Bi2O5,2.1187
mvc-3810,AlSbO3,0.6959999999999997
mvc-3826,AlBiO3,1.2596999999999996
mvc-3842,Zn2Ag2O5,0.15270000000000006
mvc-3916,Zn3Fe2(SiO4)3,2.6936000000000004
mvc-3947,Mg2Mn2O5,0.4372999999999996
mvc-3951,Mg2Fe2O5,1.4261
mvc-3983,V2Zn2O5,0.6677
mvc-3986,Zn2Cr2O5,0.9592999999999998
mvc-3988,Ca2Fe2O5,0.7892000000000001
mvc-3998,CaNiO3,0.29590000000000005
mvc-4000,Zn2Fe2O5,1.8916
mvc-4001,ZnCrO3,0.09839999999999982
mvc-4002,ZnMoO3,1.4895999999999998
mvc-4007,Zn2Mo2O5,0.12440000000000008
mvc-4013,ZnWO3,2.2105
mvc-4059,TiSiO4,1.2681000000000004
mvc-5595,Mg(CuO2)2,0.07920000000000016
mp-1016111,MnHO2,1.3787999999999998
mp-10614,SrLiP,0.7964000000000002
mp-1110680,Rb2LiSbCl6,2.9411000000000005
mp-1110809,Rb2CeAgCl6,0.266
mp-1187577,TmCrO3,1.9067
mp-1219450,Sc2(WO4)3,3.4481
mp-21459,InAgS2,0.5082
mp-24328,RbHCO2,4.4247
mp-24948,RbFe(SeO4)2,2.2159
mp-543097,MnAsO4,0.07269999999999999
mp-556489,Ta2SnO6,2.2893
mp-559366,PBrNF,4.2347
mp-559826,ErCuS2,1.7449000000000003
mp-560151,AlPO4,5.4802
mp-560572,Al(HO)3,4.9898
mp-567680,BaCl2,4.5724
mp-625993,Te(HO)6,1.9738
mp-626534,H3NO,3.8407
mp-626750,SrH4O3,4.4464
mp-656152,Gd2Cl3,0.1208999999999998
mp-6597,CsLiSO4,5.3584
mp-6604,Na2LiAlF6,7.2073
mp-6622,BaNd2Ti3O10,1.946
mp-6671,Sm4Si2S3O7,2.5838
mp-674478,BaCO3,4.1595
mp-675462,Mo2RuSe4,0.4815000000000005
mp-675476,K3SnSb3,0.2394000000000003
mp-675519,Tl3In7Se10,0.5683000000000002
mp-676315,Y2GeI2,0.19159999999999974
mp-685041,Ho2Se3,1.6135999999999997
mp-685608,K2UF6,0.3449999999999997
mp-686708,Rb2YbTi(PO4)3,0.003300000000000025
mp-686724,Sr2La14Mg4(Ga4O15)3,2.7061
mp-690129,BaMnO3,0.8679000000000001
mp-694884,KFeH5(SO5)2,0.2983
mp-697757,LiCr2(PO4)3,0.1954
mp-698609,Sr7PrFe4(MoO6)4,0.9672999999999998
mp-698644,Tm2PbS4,0.5497000000000005
mp-698648,K3(MoO3)10,0.4042999999999999
mp-698650,Sr13Mn8O30,0.4822
mp-698670,Sr14Fe14O39,0.024000000000000018
mp-698692,Sr12Co10O27,0.19479999999999986
mp-698706,NaCoP2HO7,2.9325
mp-698711,Sr9NdFe5(MoO6)5,0.8835000000000006
mp-700127,Pr5(Mo16O27)2,0.03859999999999975
mp-700146,Nd5(Mo16O27)2,0.03599999999999959
mp-705516,Li10Sn(PSe6)2,1.0869000000000002
mp-7087,SiO2,5.3645000000000005
mp-7280,PPdS,1.0934
mp-7295,RbCr5S8,0.2911000000000001
mp-7305,SmZrF7,5.8965
mp-7339,BaSiO3,4.5345
mp-7355,Sm2SnS5,0.0019000000000000128
mp-752793,Li2AgF3,1.9648
mp-753318,DyBO3,4.513999999999999
mp-753345,Ba2CaI6,3.4758
mp-756448,LaMgI5,1.9817
mp-756474,Rb3YO3,2.2030000000000003
mp-758812,Li3Sb2(PO4)3,3.0903
mp-758895,Ta2Tl2P7HO24,3.2302
mp-759943,Al2O3,4.0646
mp-760091,Nb(SO4)2,0.17510000000000006
mp-761527,LiMnPO4,3.4354
mp-762271,Li2V3O6,0.4040999999999997
mp-763244,ZnFeH4O2F5,2.9358
mp-763510,LiFe2(CO3)3,1.6004
mp-763845,V3O7F,1.2538
mp-764095,Na2VPO6,3.029
mp-764220,LiV2OF5,1.8389
mp-764288,Li3MnF6,1.8901
mp-764290,V3OF7,1.1207
mp-764431,LiMn2F5,3.4517
mp-764924,Mn6OF11,0.3742000000000001
mp-764931,Li3MnFeCo(PO4)3,2.0595000000000003
mp-764932,Li3Fe4(BO3)4,1.2706
mp-764937,Mn12O5F19,0.13549999999999995
mp-764938,Li3Fe8(BO3)8,1.7381999999999995
mp-764941,Li3Fe8(BO3)8,1.5204999999999995
mp-764966,Na2B8O13,5.6427000000000005
mp-764970,Li6MnV3(PO4)6,0.3317000000000001
mp-764971,Li3Fe8(BO3)8,1.5276
mp-766116,VF3,1.7384000000000002
mp-767781,Sr16Mn8O29,0.3805000000000001
mp-771713,Cr2(WO4)3,3.0068
mp-771721,V4FeNiO12,1.6055
mp-771816,Gd3NbO7,2.2513
mp-7719,NaTm(SO4)2,5.7586
mp-772021,LiMnO2,0.4664000000000002
mp-772036,YTa7O19,3.1554
mp-772412,MgSiO3,4.7719
mp-775768,Na2NiPCO7,0.08630000000000004
mp-775783,Hf2N2O,2.0671
mp-775784,Hf2N2O,2.0909999999999997
mp-775785,Hf2N2O,2.0253
mp-775786,Hf2N2O,2.029000000000001
mp-775799,Hf2N2O,2.1399
mp-775802,Zr2N2O,1.7373999999999996
mp-775803,Ti2N2O,0.9375999999999998
mp-775806,Li3SbS3,2.2746
mp-776619,Li2TiV3O8,0.6088
mp-780826,LiFeF3,3.2949
mp-780827,FeOF,1.7701999999999998
mp-780828,V3(O2F)2,0.5726
mp-780831,Mn6O7F5,0.035700000000000065
mp-780859,Ti3V2Ni(PO4)6,0.9772000000000004
mp-780865,Co3OF5,0.9779
mp-781081,VOF3,3.1091
mp-782648,LiMn(PO3)4,0.9556
mp-782650,LiMnP2O7,1.0318999999999998
mp-782820,Li5Mn6(BO3)6,0.3785000000000001
mp-821,NbO2,0.42600000000000016
mp-849689,FeO,1.1609999999999996
mp-850083,Fe4S5,0.002700000000000008
mp-850152,Li2MnSiO4,2.8521
mp-850153,Li2Mn2(SiO3)3,3.0765
mp-850155,NiH12S2(NO5)2,4.5176
mp-850157,LiMn(PO3)4,1.3193
mp-850163,Li3Mn3(PO4)4,0.7661999999999998
mp-850431,LiFe4(BO3)4,1.7173000000000005
mp-850434,Li5Mn6(BO3)6,0.256
mp-850435,LiFe4(BO3)4,1.5541
mp-850448,Mn6OF11,0.4207
mp-850454,Li3Mn2(P2O7)2,0.1887000000000001
mp-850462,Li4MnV3(P2O7)4,0.4757
mp-850472,LiFe(SO4)2,2.0749
mp-850501,LiVSiO4,2.6449
mp-850505,NiP(H4O3)3,4.1354000000000015
mp-850743,Li8MnFe7(BO3)8,3.1002
mp-853139,Li2V(PO4)2,2.962
mp-853152,Na3NiO2,0.19600000000000015
mp-863076,NbBiO4,2.3185
mp-8720,Rb2MnTe2,0.9598999999999998
mp-8763,Tm2S2O,2.6947
mp-8845,SeS2(NO)2,1.9484
mp-8850,Dy2S3,0.7389000000000001
mp-8869,Y2S2O,2.5515000000000003
mp-8901,Rb2VAgS4,1.3325
mp-8931,Rb2SnAs2,0.6783999999999999
mp-8945,YSnF7,4.7535
mp-8946,TlBS2,1.7606000000000002
mp-8956,Ho2S3,0.6113999999999997
mp-9018,LiCdPO4,3.2179
mp-9138,RbPO3,4.7607
mp-9718,Rb3BAs2,1.2949
mp-975614,Nd3AlNiS7,0.09640000000000004
mp-980659,Tl3BiCl6,2.8618
mp-980949,WCl4,0.2519
mp-982384,TbH3,0.02629999999999999
mvc-11482,Ca(CrS2)2,1.2807999999999995
mvc-11560,CaCr2O4,2.9589000000000003
mvc-3476,AlAgO3,0.033999999999999815
mvc-3479,YBiO3,2.0667000000000004
mvc-3494,AlBiO3,0.7633999999999999
mvc-3506,AlSbO3,1.1982999999999997
mvc-36,Ca(MnS2)2,0.2601
mvc-3619,Zn3Co2O7,0.2427999999999999
mvc-3620,V2Zn3O7,1.0961
mvc-3637,Zn2W3O8,0.44499999999999984
mvc-3668,Zn3Cr2O7,0.4205000000000001
mvc-3751,YFeO3,1.2949000000000002
mvc-3768,YCrO3,1.1967
mvc-3769,YMoO3,0.6668000000000003
mvc-3770,YVO3,1.0432
mvc-3773,YNiO3,0.05969999999999985
mvc-3775,AlCrO3,0.9463999999999996
mvc-3779,AlMoO3,0.7042000000000002
mvc-3783,MgTiO3,2.6362
mvc-3784,AlWO3,0.4683999999999999
mvc-3788,TiZnO3,2.4888000000000003
mp-1045736,Zn(MoO3)2,0.7704
mp-1080308,CeSe2,0.9094999999999998
mp-1176173,Li9Mn2Co5O16,0.7948999999999997
mp-1210145,NdCrGeO5,2.4043
mp-12637,Ba2NdNbO6,2.85
mp-16053,CuSiO3,0.10299999999999976
mp-18690,SmF3,5.4407000000000005
mp-3417,Ca(BO2)2,5.1925
mp-570099,RbVBr3,0.5839000000000003
mp-5724,AlPO4,5.4824
mp-616604,CsMnF4,0.0994
mp-619171,Rb2LiFeF6,3.6976
mp-620979,CsNiF3,4.872
mp-6233,NaSr3RuO6,0.4965000000000002
mp-634896,YOF,5.0138
mp-672706,Sb2Se3,0.4902000000000002
mp-672950,Sb(PO3)4,0.026699999999999943
mp-673088,Nb(PO3)4,0.2333000000000003
mp-673825,Ag3SI,0.4249000000000001
mp-675119,Os(OF)2,0.1775
mp-675247,Li2CoCl4,0.0112000000000001
mp-686312,Na3Zr2Si2PO12,4.4001
mp-686367,Sr2La14Mg4(Ga4O15)3,1.2361999999999993
mp-694851,LiMnO2,0.8898999999999999
mp-694960,NaLa2Ti2MnO9,0.02470000000000017
mp-695470,NaSr8NdTi10O30,1.7906000000000004
mp-697267,TlP(HO2)2,3.9699
mp-697969,Rb2Cu3H2S3O14,0.2840000000000001
mp-698360,HgH2C6(NCl2)2,0.03279999999999994
mp-699908,Mn3(PO4)2,3.0258
mp-744208,Rb2CrH2Cl5O,2.327
mp-744212,NiPH4ClO3,3.9714
mp-744474,Mo2P4O15,0.009600000000000051
mp-744814,RbFeP2(HO4)2,2.7522
mp-754610,Sr3CaI8,2.9311000000000003
mp-754925,BaLaI5,2.5083
mp-756748,ScH3(ClO5)2,4.1145
mp-757597,LiSn(PO3)4,0.08929999999999971
mp-757797,LiTiP2O7,0.1665000000000001
mp-758299,Li2SnP2O7,3.3434000000000004
mp-760957,NaCuP2O7,0.5751000000000001
mp-761025,Rb3InO3,1.8955
mp-761041,TiP2O7,2.7332
mp-761262,LiCuF3,0.35850000000000004
mp-761319,Li2VP2O7,2.9062
mp-761351,Li2Fe(Si2O5)3,0.2604000000000001
mp-761434,Fe7(PO5)4,0.1479999999999997
mp-761494,LiNi4(PO4)3,3.2862
mp-761506,Li4FeP2O9,0.1763
mp-761513,LiFeSi3O8,2.4135
mp-761555,Li3Fe(PO4)2,1.9918
mp-761562,LiMnPO4,3.4363
mp-761583,Li3V(Si2O5)3,2.3736999999999995
mp-761593,LiFePO4,3.3005
mp-761604,Li4MnP2O9,1.0964999999999998
mp-761649,Li2V(Si2O5)3,2.2264
mp-761666,Li3Mn(Si2O5)3,1.0693
mp-761699,LiMnPO4,3.4096
mp-761764,Li3Fe(Si2O5)3,3.1938
mp-761767,LiFe(SiO3)2,2.9697
mp-761804,LiMnPO4,3.3371000000000004
mp-761829,LiCoPO4,2.9874
mp-761867,Li2Cu(PO3)4,0.12080000000000002
mp-762244,Li2AgF4,0.5475999999999999
mp-763892,Li3Co2(GeO4)2,0.0676
mp-764323,Li7Mn(OF)3,2.7466
mp-764588,LiFe2(BO3)2,0.9619
mp-764596,Mn6O5F7,0.2857000000000001
mp-764601,Li7V3P8O29,0.7787
mp-764615,LiMnV(P2O7)2,1.2843
mp-764664,Mn12O5F19,0.10699999999999997
mp-764704,Li2MnV(P2O7)2,0.2722
mp-764708,Li3MnFeCo(PO4)3,2.2194
mp-764750,Li3Fe8(BO3)8,1.6965
mp-764809,Li3MnFeCo(PO4)3,2.2515
mp-764816,Mn6OF11,0.37780000000000014
mp-764826,Li2MnF5,2.2819
mp-764856,Li6MnV3(PO4)6,0.2786
mp-764857,Li2Ni2(SO4)3,3.6558
mp-764891,Li5Fe8(BO3)8,1.4773999999999998
mp-764893,Li2MnV(P2O7)2,0.3926000000000001
mp-764896,Li7Fe8(BO3)8,1.1564
mp-764912,Li3MnFeCo(PO4)3,2.0732000000000004
mp-764916,LiFe4(BO3)4,1.4879
mp-764993,Li3V3P8O29,0.9759
mp-764994,Li3V3P8O29,1.014
mp-765755,Li2VO3F,2.3132
mp-766026,RbCuSb2H2Se4O,0.6093999999999999