task_id,composition,band_gap
mp-861724,Ac2AgIr,0.0
mp-1183076,Ac2AgPb,0.0
mp-1183068,Ac2CdGa,0.0
mp-1183063,Ac2CdGe,0.0
mp-1183086,Ac2CdHg,0.0
mp-862319,Ac2CdSn,0.0
mp-862786,Ac2CuGe,0.0
mp-861883,Ac2CuIr,0.0
mp-1183120,Ac2CuRu,0.0
mp-867122,Ac2CuSi,0.0
mp-865470,Ac2CuSn,0.0
mp-862683,Ac2GaCu,0.0
mp-1183054,Ac2GaSi,0.0
mp-867241,Ac2GePd,0.0
mp-861872,Ac2HgGe,0.0
mp-1183377,Ac2InGa,0.0
mp-865951,Ac2IrAu,0.0
mp-866107,Ac2IrPd,0.0
mp-1183093,Ac2IrRh,0.0
mp-985286,Ac2Mg,0.0
mp-1183074,Ac2MgGa,0.0
mp-1183078,Ac2MgPb,0.0
mp-866103,Ac2MgSn,0.0
mp-1183079,Ac2MgTl,0.0
mp-983587,Ac2NiGe,0.0
mp-862849,Ac2NiIr,0.0
mp-862698,Ac2SiAu,0.0
mp-983586,Ac2SiHg,0.0
mp-865855,Ac2SiPd,0.0
mp-864795,Ac2SnHg,0.0
mp-1183072,Ac2TlCd,0.0
mp-1183073,Ac2TlIn,0.0
mp-1183070,Ac2TlSn,0.0
mp-1183077,Ac2YbMg,0.0
mp-1183066,Ac2ZnAu,0.0
mp-865535,Ac2ZnGa,0.0
mp-866018,Ac2ZnGe,0.0
mp-1183067,Ac2ZnHg,0.0
mp-1183106,Ac2ZnIn,0.0
mp-865398,Ac2ZnIr,0.0
mp-866289,Ac2ZnSi,0.0
mp-1183061,Ac2ZnSn,0.0
mp-1183080,Ac3Ag,0.0
mp-1183064,Ac3Au,0.0
mp-1183119,Ac3Br,0.0
mp-1183090,Ac3Cd,0.0
mp-1183105,Ac3Ce,0.0
mp-1183113,Ac3Cl,0.0
mp-1183075,Ac3Cr,0.0
mp-1183081,Ac3Dy,0.0
mp-1183091,Ac3Er,0.0
mp-1183271,Ac3Eu,0.0
mp-985291,Ac3Hg,0.0
mp-1183111,Ac3Ho,0.0
mp-1183096,Ac3I,0.0
mp-985305,Ac3In,0.0
mp-1183095,Ac3La,0.0
mp-1183087,Ac3Lu,0.0
mp-1183097,Ac3Mo,0.0
mp-1183104,Ac3Nb,0.0
mp-985554,Ac3Nd,0.0
mp-1183280,Ac3Np,0.0
mp-1183126,Ac3Pa,0.0
mp-1183109,Ac3Pm,0.0
mp-985302,Ac3Pr,0.0
mp-985561,Ac3Sc,0.0
mp-1183122,Ac3Si,0.0
mp-985547,Ac3Sm,0.0
mp-861939,Ac3Sn,0.0
mp-1183099,Ac3Tb,0.0
mp-985303,Ac3Th,0.0
mp-1183108,Ac3Ti,0.0
mp-985506,Ac3Tl,0.0
mp-1183084,Ac3Tm,0.0
mp-1183094,Ac3V,0.0
mp-1183083,Ac3Y,0.0
mp-1183059,Ac3Yb,0.0
mp-1183092,Ac3Zn,0.0
mp-1183058,Ac3Zr,0.0
mp-866199,AcAg,0.0
mp-1183065,AcAg2Pb,0.0
mp-862890,AcAg2Sn,0.0
mp-865950,AcAg3,0.0
mp-862972,AcAgAu2,0.0
mp-862873,AcAgHg2,0.0
mp-862617,AcAl3,0.0
mp-867838,AcAu3,0.0
mp-866016,AcBiAu2,0.0
mp-867890,AcCd3,0.0
mp-867338,AcCdAg2,0.0
mp-1183071,AcCdAu2,0.0
mp-864644,AcCdHg2,0.0
mp-861880,AcCdRh2,0.0
mp-1183110,AcCe3,0.0
mp-1183117,AcCeMg2,0.0
mp-1183114,AcCu3,0.0
mp-1232311,AcCuO2F,0.0
mp-864606,AcCuO3,0.0
mp-1183062,AcDy3,0.0
mp-985300,AcEr3,0.0
mp-1183125,AcEu3,0.0
mp-1006278,AcEuAu2,0.0
mp-1183268,AcEuMg2,0.0
mp-1183124,AcEuZn2,0.0
mp-867815,AcGa3,0.0
mp-862665,AcGe3,0.0
mp-24147,AcH2,0.0
mp-862289,AcHg3,0.0
mp-861966,AcHgAu2,0.0
mp-1183060,AcHgRh2,0.0
mp-1183055,AcHgTe2,0.0
mp-867297,AcIn3,0.0
mp-1183121,AcInAg2,0.0
mp-862860,AcInAu2,0.0
mp-867321,AcInHg2,0.0
mp-1183049,AcLa,0.0
mp-985059,AcLa3,0.0
mp-1183118,AcLaCd2,0.0
mp-1183101,AcLaMg2,0.0
mp-866286,AcMg,0.0
mp-984785,AcMg3,0.0
mp-864996,AcMg5,0.0
mp-865979,AcMgCd2,0.0
mp-866225,AcMgHg2,0.0
mp-1183142,AcMgO3,0.0
mp-861735,AcMgTl2,0.0
mp-1183182,AcMgZn2,0.0
mp-1183153,AcMnO3,0.0
mp-1183255,AcNb3,0.0
mp-1183235,AcNd3,0.0
mp-1183179,AcNdMg2,0.0
mp-1183139,AcNiO3,0.0
mp-867422,AcPbAu2,0.0
mp-1183145,AcPdO3,0.0
mp-1183241,AcPm3,0.0
mp-1183239,AcPr3,0.0
mp-1183181,AcPrMg2,0.0
mp-1183220,AcRh2Pb,0.0
mp-862894,AcSbAu2,0.0
mp-1183247,AcSc3,0.0
mp-1183152,AcScO3,3.380000000000001
mp-1183234,AcSe3,0.0
mp-866222,AcSi3,0.0
mp-1183150,AcSiO3,0.0
mp-1183230,AcSm3,0.0
mp-865957,AcSnAu2,0.0
mp-1183197,AcSnHg2,0.0
mp-1183243,AcSnPd2,0.0
mp-1183217,AcTb3,0.0
mp-865558,AcTe3,0.0
mp-1183258,AcTh3,0.0
mp-865927,AcTiO3,0.0
mp-865958,AcTlAg2,0.0
mp-865952,AcTlAu2,0.0
mp-984551,AcTlHg2,0.0
mp-1183199,AcTlRh2,0.0
mp-1183168,AcVO3,0.0
mp-1183226,AcY3,0.0
mp-1183236,AcYb3,0.0
mp-1183196,AcYbAg2,0.0
mp-1183185,AcYbAu2,0.0
mp-979962,AcYbCd2,0.0
mp-979981,AcYbGa2,0.0
mp-866203,AcYbHg2,0.0
mp-979950,AcYbMg2,0.0
mp-980005,AcYbRh2,0.0
mp-1183192,AcYbTl2,0.0
mp-865953,AcYbZn2,0.0
mp-1183174,AcZn2Cd,0.0
mp-864809,AcZn3,0.0
mp-861734,AcZnAu2,0.0
mp-1215094,Ag(AsSe2)3,0.0
mp-35835,Ag(AuS)2,0.0
mp-558796,Ag(Bi2S3)3,0.0
mp-1207284,Ag(BiSe2)3,0.0
mp-1206226,Ag(BiTe2)3,0.0
mp-777775,Ag(H7O4)2,0.0
mp-675553,Ag(Mo3S4)2,0.0
mp-1103642,Ag(Mo3Se4)2,0.0
mp-1192809,Ag(NO)3,0.0
mp-1229205,Ag(OsO3)2,0.0
mp-29607,Ag(TeMo)6,0.0
mp-29717,Ag(W3Br7)2,0.0
mp-770433,Ag11Hg9,0.0
mp-686119,Ag13(BiI4)14,0.0
mp-676840,Ag13(PbO3)6,0.0
mp-685283,Ag13Bi15I64,0.0
mp-510349,Ag13OsO6,0.0
mp-686149,Ag15(BiI4)16,0.0
mp-685512,Ag15Bi7I40,0.0
mp-1201221,Ag2(RhS)15,0.0
mp-1182976,Ag2As2O7,0.0
mp-1202196,Ag2As3S6N,0.0
mp-1080805,Ag2AsS4N,0.0
mp-1183003,Ag2Au3N6Cl17,0.0
mp-1229125,Ag2BiSbTe4,0.0
mp-862982,Ag2Br3,0.0
mp-1197559,Ag2C4Br3N,0.02590000000000004
mp-864635,Ag2Cl3,0.0
mp-1391,Ag2F,0.0
mp-861945,Ag2F3,0.0
mp-542298,Ag2F5,0.0
mp-755127,Ag2GeO4,0.0
mp-686742,Ag2H21N7(ClO4)2,0.0
mp-1229093,Ag2Hg,0.0
mp-770023,Ag2Hg3,0.0
mp-759790,Ag2Hg5,0.0
mp-1095946,Ag2HgAu,0.0
mp-1079032,Ag2IO6,0.0
mp-667327,Ag2Pb8Cl4O7,2.0909999999999997
mp-1096329,Ag2PdAu,0.0
mp-568936,Ag2Se,0.0
mp-1229127,Ag2SnBiS4,0.0
mp-1229140,Ag2SnBiSe4,0.0
mp-680202,Ag2SnO3,0.0
mp-1592,Ag2Te,0.0
mp-13211,Ag2Te2O7,0.0
mp-35320,Ag3(AsO4)2,0.0
mp-36383,Ag3(PO4)2,0.0
mp-1229256,Ag32Te20As3,0.0
mp-674968,Ag33(PbO3)14,0.0
mp-1183193,Ag3As,0.0
mp-1183214,Ag3Au,0.0
mp-1229111,Ag3Bi,0.0
mp-1214935,Ag3Bi8S13,0.0
mp-1120715,Ag3BiBr6,0.224
mp-1183272,Ag3Br,0.0
mp-1214975,Ag3C2(NO3)2,0.0
mp-1183265,Ag3Cl,0.0
mp-1183244,Ag3F,0.0
mp-1229108,Ag3Ge,0.0
mp-1215046,Ag3HSN3O2,0.0
mp-1183250,Ag3Hg,0.0
mp-653562,Ag3I(NO3)2,0.0
mp-776370,Ag3IrO4,0.0
mp-985299,Ag3N,0.0
mp-27819,Ag3O,0.0
mp-1605,Ag3O4,0.0
mp-985295,Ag3P,0.0
mp-1197801,Ag3P2N(O3F)2,0.0
mp-1214993,Ag3P3HO9,0.0
mp-695967,Ag3P6H12N3O19,0.0
mp-1215074,Ag3Pd13Pb6,0.0
mp-12065,Ag3Pt,0.0
mp-1183225,Ag3Rh,0.0
mp-1183261,Ag3Ru,0.0
mp-1183254,Ag3S,0.0
mp-1182998,Ag3S(NO)3,0.0
mp-1183032,Ag3SNO4,0.0
mp-16240,Ag3Sb,0.0
mp-1195261,Ag3Sb4F24,0.0
mp-1214902,Ag3SbTe4,0.0
mp-1183249,Ag3Se,0.0
mp-611,Ag3Sn,0.0
mp-1215111,Ag3Te(AsO7)2,0.0
mp-1215032,Ag3Te(PO7)2,0.0
mp-1183177,Ag3W,0.0
mp-675633,Ag4AuS2,0.0
mp-560342,Ag4GeO4,0.0
mp-685999,Ag4SI,0.0
mp-738646,Ag4Te(ClO3)2,0.0
mp-618375,Ag4Te(NO3)2,0.0
mp-22286,Ag5(PbO3)2,0.0
mp-530464,Ag5(Sn3S8)2,0.0
mp-1229225,Ag5BS4,0.0
mp-1229311,Ag5Sb23(PbS4)12,0.0
mp-558786,Ag6GeSO8,0.0
mp-1229201,Ag6HgNO11,0.0
mp-1229161,Ag6P6O19,0.0
mp-1229145,Ag6SbAsS6,1.346
mp-1229118,Ag6SnSb,0.0
mp-675987,Ag7(SI)2,0.0
mp-696470,Ag7NO6,0.0
mp-690667,Ag7NO8,0.0
mp-28228,Ag7Te4,0.0
mp-18474,Ag8GeSe6,0.0
mp-1215006,Ag8Hg(AsO5)2,0.0
mp-28963,Ag8S,0.0
mp-675327,Ag9(PbO3)4,0.0
mp-676430,Ag9(SI)4,0.0
mp-561034,Ag9Ge2IO8,0.0
mp-676260,Ag9Te4Br3,0.0
mp-1183178,AgAs,0.0
mp-4807,AgAsF7,0.0
mp-631567,AgAsRu2,0.0
mp-1229092,AgAu,0.0
mp-776165,AgAuO3,0.2423000000000001
mp-12062,AgB2,0.0
mp-5160,AgBF5,0.0
mp-24058,AgBH2OF4,3.044
mp-780275,AgBO3,0.0
mp-775774,AgBiO3,0.0
mp-1183166,AgBiPd2,0.0
mp-1229089,AgBiSeS,0.0
mp-1229113,AgBiTe3Pb,0.0
mp-1229083,AgBiTeSe,0.0
mp-1008653,AgC,0.0
mp-1215161,AgC2S2N4Cl,0.0
mp-1214982,AgC6,0.0
mp-753176,AgCO3,0.0
mp-7715,AgF2,0.0
mp-1183245,AgGe3,0.0
mp-1096274,AgGeAu2,0.0
mp-1229030,AgGeBiTe3,0.0
mp-1205035,AgH28S8Br2(N3O4)3,0.0
mp-996958,AgHO2,0.0
mp-758433,AgHg,0.0
mp-1183210,AgHg3,0.0
mp-1229053,AgHgAsO4,0.0
mp-997000,AgHgO2,0.0
mp-861501,AgHgPd2,0.0
mp-1214931,AgIO2,0.0
mp-1183229,AgIr,0.0
mp-662534,AgIrF7,0.0
mp-1229112,AgMo12PbS16,0.0
mp-1229066,AgMo6(SeS)4,0.0
mp-1214906,AgMoO4,0.0
mp-1056955,AgN,0.0
mp-1214946,AgO2,0.0
mp-997101,AgO2F,0.0
mp-1078079,AgPPd5,0.0
mp-1025385,AgPPt5,0.0
mp-1229269,AgPb2Cl3OF,0.0
mp-1183256,AgPb3,0.0
mp-1178556,AgPbO3,0.0
mp-1229012,AgPd,0.0
mp-1229031,AgPd2Au,0.0
mp-1097539,AgPd2Pb,0.0
mp-1200271,AgPd3Se,0.0
mp-1183167,AgPdAu2,0.0
mp-776166,AgPdO3,0.0
mp-1229015,AgPt,0.0
mp-1229032,AgPt4,0.0
mp-1214922,AgPtF6,0.0
mp-1183233,AgRh,0.0
mp-1214934,AgRhF6,0.0
mp-17588,AgRuF7,0.0
mp-776168,AgRuO3,0.0
mp-761035,AgRuO4,0.0
mp-1095943,AgSbPd2,0.0
mp-1228993,AgSbSeS,0.0
mp-1229036,AgSbTe3Pb,0.0
mp-1229007,AgSbTeSe,0.0
mp-1229079,AgSbWO7,0.0
mp-379,AgSe,0.0
mp-1101086,AgSe5,0.0
mp-1183248,AgSn3,0.0
mp-1097586,AgSnAu2,0.0
mp-755834,AgSnO3,0.0
mp-1096381,AgSnPd2,0.0
mp-1097284,AgSnRh2,0.0
mp-1229005,AgSnS2,0.0
mp-1229011,AgSnSe2,0.0
mp-1229006,AgSnTe2,0.0
mp-31495,AgTe2Au,0.0
mp-28246,AgTe3,0.0
mp-3291,AgTe4Au,0.0
mp-1229084,AgW2(Br3O)2,0.0
mp-1025333,AgWS4N,0.0
mp-1214959,Al(Ag3Se2)3,0.0
mp-1214919,Al(Bi3O5)4,0.0
mp-1096811,Al(BiO2)2,0.0
mp-761552,Al(CoO2)2,0.0
mp-1045074,Al(CoO2)3,0.0
mp-1045348,Al(CoS2)2,0.0
mp-10010,Al(CoSi)2,0.0
mp-7692,Al(CrB)2,0.0
mp-1147771,Al(CuN)3,0.0
mvc-4135,Al(CuO2)2,0.0
mvc-11882,Al(CuO2)3,0.0
mp-16496,Al(CuRe)2,0.0
mvc-14816,Al(CuS2)3,0.0
mvc-11839,Al(CuSe2)3,0.0
mp-3805,Al(FeB)2,0.0
mvc-10947,Al(FeO2)2,0.0
mp-1045438,Al(FeS2)2,0.0
mvc-14436,Al(MoS2)12,0.0
mp-1104358,Al(NCl)3,0.0
mp-1182975,Al(NCl)4,0.0
mp-1079140,Al(NF2)3,0.0
mp-505473,Al(Ni10B7)2,0.0
mp-866315,Al(Ni3B2)4,0.0
mp-1229119,Al(Ni4Pt)3,0.0
mp-770097,Al(NiO2)2,0.0
mp-1045119,Al(NiO2)3,0.0
mp-1045491,Al(NiS2)2,0.0
mp-1204923,Al(SO6)2,0.0
mvc-4299,Al(SnO2)2,0.0
mp-1229060,Al(V4Ge)3,0.0
mp-1229062,Al(V4Si)3,0.0
mp-1229114,Al(V4Sn)3,0.0
mp-1103718,Al(VS2)4,0.0
mvc-4356,Al(WO2)2,0.0
mvc-12194,Al10(Bi2O9)3,0.0
mvc-11769,Al10(Cu2O7)3,0.0
mp-28503,Al10Si2O19,3.3810000000000002
mp-1214980,Al11(CoSi)6,0.0
mp-1215162,Al119Cr16Fe13,0.0
mp-766248,Al11InO17,3.720999999999999
mp-1214955,Al11NO17,0.0
mp-1229215,Al11O18,0.0
mp-1214889,Al11Re4,0.0
mp-17017,Al12Co4Cu,0.0
mp-1214901,Al12Fe7,0.0
mp-1215158,Al12Ga(S2O33)2,0.0
mp-1229336,Al12Ge(Se2O35)2,0.0
mp-550,Al12Mo,0.0
mp-1648,Al12Re,0.0
mp-1198296,Al12Ru,0.0
mp-16719,Al12Tc,0.0
mp-11227,Al12W,0.0
mp-505572,Al13(CrSi)4,0.0
mvc-11306,Al13(CuS8)3,0.0
mvc-11295,Al13(CuSe8)3,0.0
mp-1198336,Al13Co4,0.0
mp-567929,Al13Os4,0.0
mp-1198152,Al13Si5ClO38,0.0
mvc-11835,Al14(CuS8)3,0.0
mvc-11819,Al14(CuSe8)3,0.0
mp-645302,Al14Co5Si2,0.0
mp-1194643,Al15Ni3Ge4,0.0
mp-1196667,Al16As9O76,0.0
mp-16569,Al17(Re2Si)2,0.0
mp-570651,Al17Mo4,0.0
mp-1215090,Al19Co6,0.0
mvc-12722,Al2(BiO3)3,0.0
mvc-14856,Al2(CuO2)3,0.0
mvc-14082,Al2(CuS2)3,0.0
mvc-11795,Al2(CuSe2)3,0.0
mvc-14138,Al2(FeO3)3,0.0
mp-1214897,Al2(Ni7B2)3,0.0
mp-1215020,Al2(Zn13Pd3)3,0.0
mp-1214905,Al20(CoB2)3,0.0
mp-1498,Al21Pd8,0.0
mp-1215027,Al21Pt5,0.0
mp-568153,Al22Mo5,0.0
mp-530274,Al23B50,0.0
mp-30335,Al23V4,0.0
mp-531864,Al24Zn3O40,0.0
mp-2647,Al2Au,0.0
mp-29674,Al2B2Ru3,0.0
mvc-3512,Al2Bi2O7,0.0
mp-1199309,Al2Br7N,0.0
mp-1228913,Al2CoNi,0.0
mp-984352,Al2CoOs,0.0
mp-862695,Al2CoRu,0.0
mp-1093958,Al2CoTc,0.0
mp-1205208,Al2Cr4O19,0.0
mp-1228929,Al2CrB2Mo,0.0
mp-1096119,Al2CrFe,0.0
mp-1228949,Al2CrFeCo4,0.0
mp-1096638,Al2CrIr,0.0
mp-1097254,Al2CrTc,0.0
mp-1228962,Al2Cu2Ni,0.0
mp-1079890,Al2CuIr,0.0
mp-1214869,Al2CuMo,0.0
mp-1095860,Al2CuNi,0.0
mp-1183165,Al2CuPd,0.0
mp-1096576,Al2CuTc,0.0
mp-19533,Al2Fe3(SiO4)3,3.641399999999999
mp-29111,Al2Fe3Si4,0.0
mp-1228905,Al2FeCo,0.0
mp-1096521,Al2FeCu,0.0
mp-866031,Al2FeIr,0.0
mp-31801,Al2FeO4,2.7541
mp-1095825,Al2FePt,0.0
mp-1183147,Al2FeRh,0.0
mp-1097081,Al2FeTc,0.0
mp-1197018,Al2GeO6,0.0
mp-1215072,Al2HPb(CO5)2,0.0
mp-866284,Al2IrOs,0.0
mp-862694,Al2IrRh,0.0
mp-865989,Al2IrRu,0.0
mp-1198386,Al2Mo3,0.0
mp-18093,Al2Mo3C,0.0
mp-1229048,Al2Ni3,0.0
mp-1228554,Al2Ni9Pd,0.0
mp-1183155,Al2NiOs,0.0
mp-1228426,Al2NiPt,0.0
mp-867775,Al2NiRu,0.0
mp-8022,Al2O,0.0
mp-1093553,Al2OsPt,0.0
mp-1183136,Al2OsRh,0.0
mp-1097560,Al2OsRu,0.0
mp-653569,Al2P2O11F,0.0
mp-1204519,Al2PO8,0.0
mp-16522,Al2Pd,0.0
mp-862715,Al2PdRu,0.0
mp-1502,Al2Pt,0.0
mp-18503,Al2Re3B,0.0
mp-867125,Al2RuPt,0.0
mp-867326,Al2RuRh,0.0
mp-723020,Al2Si2H5C2NO10,0.0
mp-1103571,Al2Si2O11,0.0
mp-1200775,Al2Si2PbO10,0.0
mp-734142,Al2Si3(HO4)3,0.0
mp-1228502,Al2SiAg7,0.0
mp-1196880,Al2SiO6,0.0
mp-1206714,Al2Sn,0.0
mp-560633,Al2SnCl6O,3.959
mp-1183257,Al2Tc2O5,0.0
mp-1097381,Al2TcAu,0.0
mp-1183135,Al2TcPd,0.0
mp-1096466,Al2VIr,0.0
mp-1228540,Al2VNi9,0.0
mp-12524,Al2W,0.0
mp-1190631,Al2W5O16,0.0
mp-1206713,Al2Zn,0.0
mp-541849,Al3(BRu2)2,0.0
mp-505537,Al3(Co10B3)2,0.0
mp-1228605,Al3(MoS2)8,0.0
mp-505472,Al3(Ni10B3)2,0.0
mp-1214868,Al3(O2F)2,0.0
mp-1214915,Al3(V3C2)4,0.0
mp-1228719,Al37(Fe6Cu)2,0.0
mp-1183130,Al3Ag,0.0
mp-1183129,Al3As,0.0
mp-1183189,Al3Au,0.0
mp-16480,Al3Au8,0.0
mp-1183140,Al3Cd,0.0
mp-1201626,Al3Co(W3C)3,0.0
mp-1214851,Al3Co3Si4,0.0
mp-867780,Al3Cr,0.0
mp-985825,Al3Cu,0.0
mp-10886,Al3Cu2,0.0
mp-984873,Al3Fe,0.0
mp-1190708,Al3Fe2Si,0.0
mp-29066,Al3Fe2Si3,0.0
mp-505229,Al3FeSi2,0.0
mp-983594,Al3Ga,0.0
mp-1183195,Al3Ge,0.0
mp-1228562,Al3GeW2,0.0
mp-1183138,Al3H,0.0
mp-686547,Al3H36C12N3F4,0.0
mp-2294,Al3Ir,0.0
mp-571247,Al3Mo,0.0
mp-622209,Al3Ni,0.0
mp-1057,Al3Ni2,0.0
mp-1228921,Al3Ni2Pt,0.0
mp-16514,Al3Ni5,0.0
mp-1229029,Al3Ni9C,0.0
mp-16521,Al3Os2,0.0
mp-1183180,Al3P,0.0
mp-1229312,Al3P3C4NO13,0.0
mp-1183127,Al3Pd,0.0
mp-10901,Al3Pd2,0.0
mp-16523,Al3Pd5,0.0
mp-1183175,Al3Pt,0.0
mp-10905,Al3Pt2,0.0
mp-1501,Al3Pt5,0.0
mp-1188814,Al3Ru,0.0
mp-1070580,Al3Ru2,0.0
mp-1228909,Al3SiPd4,0.0
mp-1183131,Al3Sn,0.0
mp-1070275,Al3Tc2,0.0
mp-983584,Al3Tl,0.0
mp-2554,Al3V,0.0
mp-1228977,Al3W3C4,0.0
mp-1228936,Al3WC4,0.0
mp-983585,Al3Zn,0.0
mp-1228973,Al3ZnCr8,0.0
mp-1229039,Al3ZnNi12,0.0
mvc-15002,Al4(FeO4)3,0.0
mvc-12893,Al4(NiO4)3,0.0
mp-1229052,Al41V4,0.0
mp-31019,Al45Cr7,0.0
mp-567919,Al45V7,0.0
mp-1193623,Al4As3O23,0.0
mp-676414,Al4CO,0.0
mp-1228914,Al4CrNi15,0.0
mp-1228748,Al4CrS8,0.0
mp-1044336,Al4Cu13Si2(SbO14)2,0.0
mp-1228752,Al4Cu15,0.0
mp-1197460,Al4Fe(SiO6)2,0.0
mp-1228777,Al4Fe5Rh,0.0
mp-1228701,Al4Ge2W3,0.0
mp-30180,Al4Mo,0.0
mp-1228788,Al4Ni12C,0.0
mp-1228713,Al4Ni15,0.0
mp-1228288,Al4Ni15Ge,0.0
mp-1228500,Al4Ni15Sb,0.0
mp-1228460,Al4Ni15Sn,0.0
mp-16515,Al4Ni3,0.0
mp-1228186,Al4Ni3Pt,0.0
mp-709031,Al4P4H11C3NO18,1.029
mp-1201890,Al4P5HN2O21,0.0
mp-1228120,Al4Si,0.0
mp-1203554,Al4Si19,0.0
mp-1228192,Al4Si2Mo3,0.0
mp-1106244,Al4SiC4,0.0
mp-1228117,Al4SiPd,0.0
mp-1104047,Al4Tc,0.0
mp-1228506,Al4VNi15,0.0
mvc-12090,Al5(BiS4)3,0.0
mvc-12088,Al5(BiSe4)3,0.0
mvc-14071,Al5(CuO4)3,0.0
mvc-11911,Al5(NiO4)3,0.0
mp-1229054,Al53Fe17Si12,0.0
mp-196,Al5Co2,0.0
mp-1228374,Al5FeNi,0.0
mp-571053,Al5Mo,0.0
mp-1228559,Al5Ni41B12,0.0
mp-1182893,Al5O8,0.0
mp-1192984,Al5Re24,0.0
mp-1228158,Al5S8,0.0
mp-1214826,Al5Sb3O16,0.0
mp-1228165,Al5Se8,0.0
mp-30337,Al5W,0.0
mp-5798,Al6C3N2,0.0
mp-1228266,Al6CO7,0.0
mp-1228194,Al6CoCu3,0.0
mp-1214809,Al6GeW,0.0
mp-775365,Al6H16C5(Cl2O)6,5.5157000000000025
mp-16528,Al6Re,0.0
mp-569102,Al7(CN)3,0.0
mp-1229249,Al79(Fe13Si9)2,0.0
mp-17856,Al7CoCu2,0.0
mp-1214887,Al7Cu2Rh,0.0
mp-1214866,Al7Cu2Ru,0.0
mp-4689,Al7FeCu2,0.0
mp-1228130,Al8BC5,0.0
mp-19954,Al8Cr5,0.0
mp-1193259,Al8Fe5,0.0
mp-2733,Al8Mo3,0.0
mp-1228763,Al8V5,0.0
mp-1228742,Al9Co2Ni,0.0
mp-1214838,Al9Cr3Si,0.0
mp-1229042,Al9Fe2(SiO6)4,0.2477000000000001
mp-1228997,Al9SiC7N,0.0
mp-1228901,AlAg,0.0
mp-985805,AlAg2,0.0
mp-1228988,AlAg3,0.0
mp-1228947,AlAg4,0.0
mp-631568,AlAgB,0.0
mp-1182888,AlAs2,0.0
mp-1025306,AlAsPt5,0.0
mp-1399,AlAu,0.0
mp-569558,AlAu2,0.0
mp-1183223,AlAu3,0.0
mp-1490,AlAu4,0.0
mp-1183159,AlAuO3,0.0
mp-631514,AlB2Pb,0.0
mp-7574,AlBMo,0.0
mp-1070916,AlBW,0.0
mp-1183170,AlBi3,0.0
mp-1048242,AlBi3Se2ClO8,0.0
mvc-13600,AlBiSe4,0.0
mp-39008,AlBr4,0.0
mp-1120783,AlC,0.0
mp-1065540,AlC3,0.0
mp-1182993,AlC7IN,0.0
mp-1196181,AlC8BrO5,0.0
mp-1183215,AlCd3,0.0
mp-1182878,AlCdCu3Se4,0.0
mp-1096462,AlCdRh2,0.0
mp-284,AlCo,0.0
mp-1214822,AlCo2Ni,0.0
mp-1015811,AlCo2Si,0.0
mp-1080667,AlCo3,0.0
mp-10037,AlCo3C,0.0
mp-1041829,AlCo3F15,0.0
mp-1228933,AlCo4,0.0
mp-1228972,AlCoNi6,0.0
mp-1229047,AlCoW,0.0
mp-9956,AlCr2C,0.0
mp-773322,AlCr2O4,0.0
mp-1096575,AlCr2W,0.0
mp-637575,AlCr3B4,0.0
mp-1229068,AlCr3O8,0.0
mp-1045721,AlCr4(CuO4)3,0.0
mp-1228967,AlCr4GaC2,0.0
mp-1228922,AlCr6Si,0.0
mp-10883,AlCrCo2,0.0
mp-16494,AlCrCu2,0.0
mp-16495,AlCrFe2,0.0
mp-1228945,AlCrGe,0.0
mp-1228985,AlCrNi,0.0
mp-10885,AlCrNi2,0.0
mp-770002,AlCrO4,0.0
mp-1097410,AlCrOs2,0.0
mp-862781,AlCrRu2,0.0
mp-2500,AlCu,0.0
mp-1045607,AlCu3(AgO3)4,0.0
mp-1045637,AlCu3(BiO3)4,0.0
mp-1045851,AlCu3(MoO3)4,0.0
mp-1045829,AlCu3(NiO3)4,0.0
mp-1045633,AlCu3(SbO3)4,0.0
mp-1045632,AlCu3(SnO3)4,0.0
mp-1045892,AlCu3(WO3)4,0.0
mp-1182880,AlCu3HgSe4,0.0
mp-1182885,AlCu4,0.0
mp-1215129,AlCu6SClO19,0.0
mp-867306,AlCuAu2,0.0
mvc-13497,AlCuF5,0.0
mp-1228938,AlCuNi6,0.0
mp-1214974,AlCuO4F,0.0
mp-866296,AlCuPd2,0.0
mp-12550,AlCuPt2,0.0
mp-1183191,AlCuRh2,0.0
mp-2658,AlFe,0.0
mp-985579,AlFe2,0.0
mp-1183187,AlFe2Ge,0.0
mp-672259,AlFe2Mo,0.0
mp-31186,AlFe2Ni,0.0
mp-862288,AlFe2W,0.0
mp-1183162,AlFe3,0.0
mp-1206715,AlFe3B,0.0
mp-22793,AlFe3C,0.0
mp-1041859,AlFe3F15,0.0
mp-1206123,AlFe3H,0.0
mp-1206767,AlFe3N,0.0
mp-1206753,AlFe3O,0.0
mp-1045728,AlFe4(CuO4)3,0.0
mp-1238368,AlFe4Hg2O2F,0.0
mp-10884,AlFeCo2,0.0
mp-1183163,AlFeIr2,0.0
mp-861953,AlFeRh2,0.0
mp-1096308,AlFeRu2,0.0
mp-1097427,AlFeTc2,0.0
mp-1228994,AlGa2Bi(BO3)4,3.8789999999999996
mp-1183208,AlGa3,0.0
mp-1228893,AlGaCo2,0.0
mp-1183158,AlGaIr2,0.0
mp-1183173,AlGaNi2,0.0
mp-1228918,AlGaNi6,0.0
mp-1095917,AlGaPd2,0.0
mp-1183218,AlGaRu2,0.0
mp-1183203,AlGe3,0.0
mp-1228992,AlGe3Mo2,0.0
mp-1228900,AlGeMo,0.0
mp-867904,AlGeRu2,0.0
mp-1214891,AlH12,0.0
mp-24135,AlH18Ru(NF)6,0.0
mp-699431,AlH4(SeO4)2,0.0
mp-1214861,AlH6,0.0
mp-1198123,AlH7C2SCl4,4.702999999999999
mp-1202937,AlH8C2N,5.168699999999999
mp-1182904,AlI2NO15,0.0
mp-1106104,AlI3N5,0.0
mp-631543,AlInB,0.0
mp-1228995,AlInCuO4,0.0
mp-1183133,AlIrO3,0.0
mp-259,AlMo3,0.0
mp-1191162,AlNCl4,0.0
mp-1487,AlNi,0.0
mvc-694,AlNi(WO4)2,0.0
mp-1228849,AlNi2As,0.0
mp-2593,AlNi3,0.0
mp-1207084,AlNi3C,0.0
mvc-6742,AlNi3F15,0.0
mp-1228845,AlNi4As3,0.0
mp-1228832,AlNi6Ge,0.0
mp-1228861,AlNi6Pd,0.0
mp-1194505,AlNi9B8,0.0
mp-1228803,AlNiGe,0.0
mp-1096407,AlNiPt2,0.0
mp-1096379,AlNiRh2,0.0
mp-8023,AlO,0.0
mp-35200,AlO3,0.0
mp-1228805,AlOF3,0.0
mp-875,AlOs,0.0
mp-1182873,AlP2,0.0
mp-1214981,AlP2CN3O10,0.0
mp-1182917,AlP3C3NO9,0.0
mp-1228856,AlPPd4,0.0
mp-1025271,AlPPt5,0.0
mp-1071955,AlPS4,2.837
mp-1183278,AlPb3,0.0
mp-1199988,AlPb3SO11,0.0
mp-1183154,AlPbO3,0.0
mp-669546,AlPd,0.0
mp-2824,AlPd2,0.0
mp-1183143,AlPd3,0.0
mp-605663,AlPd5,0.0
mp-1178574,AlPdO3,0.0
mp-10904,AlPt,0.0
mp-16960,AlPt2,0.0
mp-607111,AlPt3,0.0
mp-10040,AlPt3C,0.0
mp-1228815,AlRe,0.0
mp-1042310,AlRe(WO4)2,0.0
mp-10909,AlRe2,0.0
mp-1228809,AlReSi,0.3627000000000001
mp-1097163,AlReTc2,0.0
mp-364,AlRh,0.0
mp-1183306,AlRh3,0.0
mp-542569,AlRu,0.0
mp-1093864,AlRu2W,0.0
mp-1238525,AlS2NO20,0.0
mp-1214883,AlS2NO8,0.0
mp-1047485,AlSb3F15,0.0
mp-1048241,AlSb3Se2ClO8,0.0
mp-1182916,AlSeO10,0.0
mp-1021666,AlSi,0.0
mp-1229057,AlSi3O8,0.0
mp-1227997,AlSi3W2,0.0
mp-1228558,AlSi5(CO6)2,0.0
mp-1228164,AlSiAgO4,2.5469999999999997
mp-1228015,AlSiMo,0.0
mp-1228043,AlSiNi2,0.0
mp-1228041,AlSiNi6,0.0
mp-1183132,AlSiO3,0.0
mp-1228017,AlSiPt6,0.0
mp-862778,AlSiRu2,0.0
mp-1095930,AlSiTc2,0.0
mp-1097296,AlSnRu2,0.0
mp-1018166,AlTc2,0.0
mp-1096126,AlTc2Ge,0.0
mp-1097493,AlTc2Mo,0.0
mp-631582,AlTc2Pb,0.0
mp-1097605,AlTc2W,0.0
mp-1183188,AlTc3,0.0
mp-752394,AlTeO4,0.0
mp-1228066,AlTl2Cu3Se4,0.0
mp-1182863,AlTl2OF5,0.0
mp-1237061,AlTlFe2F2,0.0
mp-1228006,AlV2,0.0
mp-1025497,AlV2C,0.0
mp-19456,AlV2O4,0.0
mp-1096156,AlV2W,0.0
mp-1387,AlV3,0.0
mp-1045776,AlV4(CuO4)3,0.0
mp-569458,AlV4C3,0.0
mp-1189472,AlV4N3,0.0
mp-1228829,AlV6Ge,0.0
mp-1228831,AlV6Sb,0.0
mp-1228822,AlV6Sn,0.0
mp-1228971,AlV9Au2,0.0
mp-1228974,AlVCo,0.0
mp-1096125,AlVCr2,0.0
mp-1228847,AlVCrC,0.0
mp-5778,AlVFe2,0.0
mp-1008530,AlVFeCo,0.0
mp-961650,AlVNi,0.0
mp-10899,AlVNi2,0.0
mp-862700,AlVOs2,0.0
mp-1093903,AlVRe2,0.0
mp-866001,AlVRu2,0.0
mp-1079892,AlW2C,0.0
mp-1228839,AlW3C4,0.0
mp-1228818,AlWC,0.0
mp-1228830,AlWC2,0.0
mp-1214951,AlZn10(B4Rh9)2,0.0
mp-1095717,AlZnAu2,0.0
mp-1096171,AlZnCo2,0.0
mp-1183151,AlZnCu2,0.0
mp-1182859,AlZnCu3Se4,0.0
mp-862705,AlZnIr2,0.0
mp-1097561,AlZnPd2,0.0
mp-866033,AlZnRh2,0.0
mp-27578,As(S2F3)2,0.0
mp-20465,As2Pd,0.0
mp-1214686,As2Pd5,0.0
mp-6915,As2PdO6,0.0
mp-1228819,As2S,0.0
mp-1228838,As2Se,0.0
mp-1077179,As2W,0.0
mp-561268,As3Pb2ClO6,3.393
mp-8182,As3Rh,0.0
mp-1183184,As3W,0.0
mp-11696,As3W2,0.0
mp-1103461,As4BrNO6,0.0
mp-568505,As4C3,0.0
mp-1214628,As4HN2(ClO3)2,0.0
mp-1095503,As4INO6,0.0
mp-1105031,As4N2Cl2O7,0.0
mp-1228867,As4PRh10,0.0
mp-675510,As4Pd5Pb,0.0
mp-1204830,As9Pb5S18,0.0
mp-28027,AsF3,5.359999999999999
mp-27721,AsH3,0.0
mp-1078960,AsNF6,0.0
mp-1228758,AsPRh4,0.0
mp-1105627,AsPb2Cl2O3,0.0
mp-1183275,AsPb3,0.0
mp-8073,AsPd2,0.0
mp-1105134,AsPd3,0.0