task_id,pretty_formula,band_gap
mp-540304,LiMo(PO3)4,4.3232
mp-540309,Li3Mo2(PO4)3,2.727
mp-540313,LiFe(PO3)3,4.189500000000002
mp-540314,Fe(PO3)3,2.0457
mp-540328,NiPO4,0.3979
mp-540331,LiMn(PO3)4,1.5583
mp-540338,MnP2O7,1.3431
mp-540341,FePO4,1.2423000000000002
mp-540343,Li2Cr(PO4)2,0.31810000000000005
mp-540349,FeP2O7,0.0628
mp-540350,MnP2O7,0.8859
mp-540352,LiCoP2O7,1.2396
mp-540356,LiFe(PO3)4,2.502
mp-540706,Na2Nb4O11,2.6498
mp-542814,SiO2,5.5103
mp-542833,Zn3(BO3)2,2.6968
mp-542846,AsS,2.0204
mp-542858,Zn3Co2(CN)12,4.3247
mp-542884,Rb2BeH4(SO5)2,5.0725
mp-542903,ZrPbO3,2.7758000000000003
mp-542931,Bi2B8O15,4.3762
mp-542967,SnSO4,4.1208
mp-543011,ZnS,2.0396
mp-543028,Tl2TeO3,1.9408000000000003
mp-553875,Zr2SN2,0.5502000000000002
mp-555003,WF6,5.3735
mp-555013,Tl3CO3F,2.4240000000000004
mp-555014,Rb2MnF5,1.2946
mp-555015,SiAg6SO8,0.006299999999999972
mp-555018,RbNa2AuO2,2.0954
mp-555022,LuSeO3F,4.2845
mp-556954,Ba5Ru2Cl2O9,0.03329999999999966
mp-556962,Pr3CuGeS7,1.6603000000000003
mp-556963,SiO2,5.3934
mp-556965,NpAgSeO5,0.07480000000000064
mp-556974,BaB4O7,6.4658
mp-556975,Nd3CuSiS7,1.6179000000000006
mp-556978,Na2S,2.1176000000000004
mp-556983,LaGaO3,3.1939
mp-556989,ZnS,2.0305
mp-556995,Nd2O3,3.6365
mp-559154,Ti4Bi2O11,2.092
mp-559270,RbBa4Sb3O,0.9396
mp-559291,Sn2PCO6,2.3096
mp-559292,P6Pb3Xe11F58,2.3499
mp-559296,AsS4N4F5,1.7121
mp-559300,KLi(PO3)2,5.4798
mp-559301,SbP(Cl2F3)2,4.4872999999999985
mp-559313,SiO2,5.3664000000000005
mp-559319,Zn2P2O7,3.6862
mp-561255,ZnBi6P2(O7F)2,2.5947
mp-561258,ZnS,2.0288
mp-561262,NaSrCrF6,3.9974
mp-561270,SnH4C2NO4F,2.6395
mp-561286,ZnS,2.0218000000000003
mp-561294,SrLi2Nb2O7,1.4673
mp-567185,SnHg6(As2Br3)2,1.3643
mp-567320,La5C2I9,1.4393000000000002
mp-567326,Bi2MoO6,0.5171999999999999
mp-567336,CdI2,2.3508
mp-567359,CdI2,2.3575
mp-567371,Sr3Li4(GeN3)2,2.0534
mp-567398,Sr3MgGeN4,1.4132000000000002
mp-567402,CdI2,2.3572
mp-567428,Tb3CuGeSe7,1.1262000000000003
mp-567434,SrLiCoF6,2.1993
mp-567442,CdI2,2.3555
mp-569287,TlPAuSe3,0.9173
mp-569292,ZrCuH8C2NCl6,2.0864000000000003
mp-569303,ZnB2(CN)8,5.5121
mp-569308,Bi2(PSe3)3,1.4152
mp-569309,RbMnCl3,1.3133
mp-571442,YI3,3.0417
mp-571464,RbPSe3,1.1229999999999998
mp-571465,PbIBr,2.5643
mp-571478,SnHg7(As2I3)2,0.9464
mp-600016,SiO2,5.6503
mp-640080,FeSiGe,0.3052000000000001
mp-687105,ThCd(MoO4)3,3.5168
mp-762293,LiCoSiO4,1.2657
mp-763116,LiV(CO3)2,1.8969999999999998
mp-763327,LiMnF3,3.4463
mp-764008,VOF2,1.118
mp-768967,Li5BO4,5.3947
mp-772617,Zn(NO3)2,3.406
mp-773736,Co3OF5,0.6702
mp-8652,SF6,5.8901
mp-867369,TcF3,0.1714
mp-9846,RbCaSb,1.4979000000000002
mvc-3272,YMnF5,4.1583
mp-1009730,Ca2Sn,0.6639999999999997
mp-1011697,Cs2Se,0.7797000000000001
mp-1017552,Bi2O3,1.1772
mp-1018032,SrCdO2,0.018199999999999997
mp-1020611,SrGe2(BO4)2,3.8131
mp-1020717,Zn2SiO4,2.1159000000000003
mp-1025351,Sr4Bi2O,1.4893999999999994
mp-1036585,Mg14AlCrO16,0.20609999999999928
mp-1057017,KC,0.5837000000000001
mp-1067154,KNO2,2.535
mp-1072104,GeO2,1.3714999999999993
mp-1077506,BN,1.0877999999999997
mp-1078237,NaNiF3,5.0068
mp-1095039,Sr2HfCrO6,0.4405999999999999
mp-1095176,Rb3NaH4,1.5303
mp-1096971,GaAgO2,0.5618999999999996
mp-1100391,NaBeSb,1.0731000000000002
mp-1101505,LiMo(PO4)2,1.349
mp-11025,ZnP2,1.4617000000000004
mp-15500,Sr4TiP4,1.432
mp-18962,Sr2CaMoO6,2.2555
mp-18981,Sr2CaWO6,3.2261999999999995
mp-19419,LiFeO2,1.6720000000000002
mp-19582,V2Zn3O8,2.7049
mp-19971,ZnCo2Ge,0.011999999999999568
mp-20006,ZnPb2F6,3.9228
mp-20343,NaAuO2,1.0651000000000002
mp-20820,Pb(NO3)2,3.5995
mp-21050,UFe2,0.012299999999999756
mp-21608,Tm2(Ni7B2)3,0.04679999999999929
mp-22383,Pu(CoSi)2,0.009399999999999407
mp-22885,XeF2,2.6861999999999995
mp-22978,Rb2MnCl4,1.2907
mp-2482,CaC2,1.3416
mp-29889,Tl2PdCl4,1.1509
mp-31406,Bi2TeSe2,0.9267000000000004
mp-31624,Sr2TaCrO6,2.7536000000000005
mp-32308,Ta2NiO6,2.7613000000000003
mp-3556,Tm2SO2,3.0985
mp-4405,Rb3AuO,0.2056
mp-540618,K3IO5,1.2686000000000002
mp-542826,Sc2PbSe4,1.2338
mp-551798,AlPO4,0.06330000000000012
mp-551886,Na4CO4,2.0001999999999995
mp-554498,SiO2,0.5029000000000001
mp-555123,KMnF3,2.6633
mp-556395,ZnS,2.0275
mp-560458,Rb2U2O7,1.6672
mp-569510,CdI2,2.3729
mp-571037,CdI2,2.3505000000000003
mp-5800,Sm3Ga5O12,3.1576
mp-600151,KNa2AlH6,1.3404
mp-601882,Fe(SbO2)2,1.2401999999999995
mp-607310,TlFeO2,1.5353
mp-632667,YbH2,0.5937000000000001
mp-649950,RuC3Br2O3,2.1206
mp-690493,LiMoO2,1.8226000000000004
mp-756160,Er3TaO7,3.3585
mp-757145,SmH2ClO2,4.7224
mp-762892,LiCoSiO4,0.7703000000000002
mp-763925,Mn6O7F5,0.06780000000000007
mp-764000,Li3CoOF3,2.1575999999999995
mp-764279,Li3MnV3O8,0.8407000000000004
mp-764602,Na2CoO3,0.5429
mp-769966,Li3TiFe3O8,1.8386
mp-771629,Li2MgMn3O8,1.3888999999999998
mp-773564,LiMnF4,1.2137
mp-774116,Li2Ti3CoO8,0.9994999999999994
mp-774128,Li2TiV3O8,0.006399999999999739
mp-777681,Li3VF6,2.5144
mp-780889,LiMnP3HO10,1.2315
mp-7983,Mg2SiO4,3.5361
mp-8936,SnSe,0.8548999999999999
mp-979137,SrGaSiH,0.4166000000000003
mp-997048,AgBrO2,0.27669999999999995
mvc-4242,Zn3Cu2(GeO4)3,0.4574999999999996
mp-1020630,Rb2Na(NO3)3,2.9986
mp-1023936,WSe2,1.5384
mp-1028668,Te2MoW3(SeS2)2,0.09150000000000036
mp-1028872,TeMoWSeS2,0.407
mp-1029015,Te2MoWSeS,0.004700000000000149
mp-1029313,NaRuN,0.5001000000000002
mp-1029510,Sr3(BN2)2,2.424
mp-1029711,NaVN2,0.8515999999999999
mp-1029784,Rb2CN2,2.8241
mp-10572,NaPN2,4.6812000000000005
mp-10644,TaTl3Se4,2.2547
mp-10851,SiO2,5.5318
mp-1120739,CaCl2,4.8793
mp-1175,SrS3,1.0703
mp-12485,NaSm3SiS7,2.0169
mp-13031,MgSe,2.5476
mp-14363,Rb2LiAsO4,3.5526
mp-1554,KTe,0.2039
mp-15701,MgSiN2,3.4715
mp-15840,BaBPO5,5.4963
mp-16945,Sr3(GaN2)2,1.5856000000000003
mp-17171,LaF3,4.9435
mp-17728,Ta3Ge,0.0032000000000005357
mp-17827,Nd3SiAgSe7,1.4489999999999998
mp-17894,Rb3Sm(PS4)2,2.1861
mp-17916,Y3CuGeSe7,1.1226000000000005
mp-18037,LiNbZnO4,2.7779
mp-18310,Si3Ag3(SnP3)2,0.2951000000000006
mp-18578,TlZnAsO4,3.1473000000000004
mp-18778,Zr(WO4)2,3.6052
mp-18789,TlCo(CO)4,3.0826
mp-1880,SbF3,4.4381
mp-19329,Na2V(PO4)2,2.7586000000000004
mp-19372,WO2,1.3489000000000004
mp-19412,VAg3O4,0.6019999999999999
mp-20199,PPbS3,2.2992
mp-20526,PbS,2.0909000000000004
mp-22253,Zn(InS2)2,0.11450000000000048
mp-223,GeO2,3.2493
mp-22607,Zn(InSe2)2,0.9929
mp-2293,MnSe,0.0484
mp-22981,TlIO3,2.7633
mp-23349,Bi(BO2)3,3.8401
mp-23494,Ti(Bi3O5)4,2.313
mp-23771,SmH3(CO2)3,4.1122
mp-23884,SrGe(HO2)2,4.1282000000000005
mp-23948,Rb3MgH5,3.0927
mp-24500,ZnH12SeO10,3.9156
mp-25301,Ti(SiO3)2,3.3233000000000006
mp-27658,Li5B4,0.023800000000000043
mp-27843,Zn2Ge3O8,2.3392
mp-27888,Zr3GeO8,3.8969
mp-27931,Rb2SnO2,2.2294
mp-28520,Rb2SnTe5,0.5848
mp-29091,Ti(CuS)4,1.4256000000000002
mp-29104,Ti3Zn2O8,2.5854
mp-29157,Si3P2Pt,0.6074000000000002
mp-29605,SrPr2O4,3.3444000000000003
mp-29756,RbB3O5,5.2118
mp-30192,Pr4Se3O4,1.3245000000000005
mp-31493,RbGa3,0.14719999999999978
mp-31519,LiCoP2O7,0.8513999999999999
mp-31928,LiMnP2O7,1.0887
mp-32408,LiVP2O7,2.0835
mp-32455,VP2O7,1.3846000000000005
mp-32662,WO3,1.4956
mp-33551,LiFe5O8,1.1879000000000004
mp-33985,Ba(InTe2)2,0.8650000000000002
mp-34381,H4IN,3.7607
mp-344,BN,3.5766
mp-35082,BH6N,6.0656
mp-35220,PHN2,4.619
mp-35751,Zn(CN)2,5.7795
mp-35822,Li4SiO4,5.0854
mp-36033,PrOF,5.1637
mp-36912,Pr2CdS4,1.6469999999999998
mp-37449,Nd5AgS8,1.6121999999999996
mp-37923,Sm5AgS8,1.6384999999999996
mp-39144,SrLiPrTeO6,3.307300000000001
mp-4497,Si2N2O,4.9247999999999985
mp-504607,YInO3,2.0516999999999994
mp-504791,P(WO4)2,1.1591000000000002
mp-504885,BaFe(Si2O5)2,3.5786
mp-505077,NaH9O5,4.5247
mp-505166,ErCu(WO4)2,1.5054999999999996
mp-540188,LiMnP2O7,1.1437
mp-540216,LiFeP2O7,2.5637
mp-540312,Li2V(PO4)2,1.4504
mp-540633,RbNb(GeO3)3,3.1666
mp-540634,TaTl(GeO3)3,3.6578
mp-541040,Y2Be2GeO7,4.540100000000002
mp-541152,Al2Si2H4O9,4.9053
mp-542980,FeHO2,1.9834
mp-545974,AlPO4,5.3232
mp-551905,OsO4,3.2473
mp-552588,LiNbO3,2.3243
mp-554002,Al(HO)3,4.996
mp-554048,NaAg(NO2)2,2.1127
mp-554383,Na2Si2O5,4.4573
mp-555313,ScBiO3,2.6869
mp-556002,Li6Cu(B2O5)2,0.7482
mp-556588,SiO2,4.0078000000000005
mp-556961,SiO2,5.4801
mp-557574,Cu2HgGeS4,0.03849999999999998
mp-557614,Cd(PO3)2,3.7122
mp-557723,SiO2,3.5613
mp-558645,PBr3O,3.0735
mp-559593,PS3N5F2,2.5324
mp-559872,SiO2,5.6041
mp-560030,CaF2,6.2478
mp-560829,Na2BeSiO4,2.9149
mp-5621,NbCu3S4,1.6574
mp-567543,UHg3(TeCl3)2,0.24350000000000005
mp-570485,SrAlSiH,0.6337000000000002
mp-571046,Sr5(GeN3)2,1.3525
mp-571195,ZnTe,1.069
mp-571436,SnI4,1.5183
mp-571452,KPSe3,1.3151
mp-581913,Sr11(Ge2N3)2,0.18009999999999993
mp-5859,AlPO4,5.507999999999999
mp-615152,MnF2,3.2807000000000004
mp-624483,YbBeF4,5.4638
mp-625051,NaHO,3.3549
mp-625238,Re2H4O9,2.6495
mp-625318,Al(HO)3,5.0246
mp-626037,Si2H2O5,5.4403000000000015
mp-626259,H3NO4,3.3335
mp-626721,RbHO,3.3443
mp-626727,SrH4O3,4.3486
mp-626799,ReH3O5,3.886
mp-626800,ReH3O5,3.7536
mp-632403,CdCl2,2.9972
mp-6327,LiAlSiO4,4.7986
mp-642682,CsHO,3.1721000000000004
mp-654373,RbVPO5,2.9656
mp-674341,Sc3TaO7,2.6921
mp-675418,BH6N,5.9101
mp-675821,Y3TaO7,3.6486
mp-675953,Tl2SeO4,2.4472
mp-676799,Ag8GeTe6,0.07189999999999985
mp-676851,KNO3,3.0554
mp-685097,HfO2,4.4133
mp-685145,BN,3.2495000000000003
mp-695960,NaZn(HO)3,3.2005
mp-696588,PH3,1.4945
mp-699219,NaZnSiHO4,3.4269
mp-707105,Li3B5(HO5)2,5.8854
mp-707170,CuH6SO7,0.7765000000000001
mp-722455,RbLi2(H2N)3,1.9381
mp-752397,Ba2SrI6,3.7685
mp-752484,YbB4O7,6.996500000000001
mp-752535,TaIn3O7,1.0756999999999994
mp-752827,Ba2In2O5,0.7034000000000002
mp-752895,Li3CuF4,0.9630999999999998
mp-753353,Sr4LiCu(CO5)2,1.0264000000000002
mp-753785,NbOF3,3.2629
mp-753946,LiCoS2,0.6646000000000001
mp-754113,TmClO,5.2921
mp-754406,Li2CuPO4,1.1851000000000005
mp-754500,LiSn2P4H3O16,2.8496999999999995
mp-754710,Sr2CaI6,3.6671
mp-754741,ZrO2,3.402200000000001
mp-754812,Al2O3,4.1705000000000005
mp-754840,TaAsO4,2.6966
mp-755309,Li3NbS4,2.7598
mp-755792,LuGaO3,3.6376
mp-755898,Er3TaO7,3.4113
mp-756427,Li5SbS4,1.3595000000000002
mp-757838,LiSn(PO3)3,4.0600000000000005
mp-7582,GeS2,2.5744
mp-758836,Li4Ti3O8,1.7453
mp-760405,ErBO3,4.5583
mp-760580,Li2AgF3,1.9705
mp-761482,Li2FePO5,2.5086
mp-761551,LiMnPO4,3.0053000000000005
mp-761572,Li2TiCoO4,0.18149999999999974
mp-761849,Na5Li3Ti5O14,2.9587000000000003
mp-762000,LiFeCO4,1.962
mp-762232,LiCoSiO4,1.1803
mp-762428,LiCrSiO4,2.7106
mp-762454,LiCrO2,1.7688999999999997
mp-762581,LiFeSiO4,2.9611
mp-762996,FeOF,1.6906
mp-763240,LiCoSiO4,1.2652
mp-763354,LiVPO5,2.9567
mp-763498,LiP2WO7,3.7422
mp-763609,Li4Mn5O10,0.6966000000000001
mp-763635,LiFeSiO4,2.963
mp-763985,Cr4OF11,0.7937000000000001
mp-764338,FePO4,2.7823
mp-764949,MnF3,0.25649999999999995
mp-765308,Li2MnO2F,0.8740000000000001
mp-765809,Li3Mn(PO4)2,0.5757999999999996
mp-766149,LiV(OF)2,2.7642
mp-766908,Li5VO3F2,1.6471
mp-767471,Li5SbS,1.2902
mp-767556,NaTiPCO7,2.6902
mp-768020,Li2MnSiO4,2.8232
mp-770411,Li2AlFeO4,3.119
mp-770707,Li2AlFeO4,3.069500000000001
mp-771046,Mg(NO3)2,3.7225
mp-771457,NbFeO4,2.024
mp-771789,TiMn3O8,1.4361000000000002
mp-773663,Na2Ti2O5,3.8739
mp-775164,Li2NbCr3O8,2.2504
mp-775296,TiMnO4,0.15789999999999993
mp-776563,CrO3,1.6688999999999998
mp-776952,Na2O,1.5089
mp-776996,Li2CoSnO4,1.0167000000000002
mp-777233,BaYF5,6.6724000000000006
mp-778591,LiMnF3,3.651
mp-778780,VBO4,2.9005
mp-779183,LiMnF3,3.4757
mp-779233,FeOF,1.7991
mp-779948,ZrMnO3,2.9252
mp-8062,SiC,1.3704
mp-849223,LiNb(TeO4)3,1.4566000000000003
mp-849504,Ta2CrNO5,1.4359999999999995
mp-853134,Li2MnP2O7,3.9831
mp-853210,Mn2OF3,0.3460000000000001
mp-8612,Sb2TeSe2,0.4865000000000004
mp-867507,TaGaFe2,0.05689999999999972
mp-8781,SnS,1.8201
mp-9410,C3N4,3.775
mp-961675,ScNiP,0.5921000000000003
mp-976707,H4CN2O,4.8066
mp-991652,VCu3Te4,0.5731999999999999
mp-1040792,Ca(NiO2)2,0.5640999999999998
mp-1044530,PrMg(MoO3)2,1.1494
mp-1045538,AlV2O4,1.0993000000000004
mp-1047169,AlAg(WO4)2,1.5724
mp-1110744,Rb2LiYI6,2.9884
mp-1147749,CaNiO2,0.8497000000000003
mp-1173559,NaNO2,2.1535
mp-1175947,Li9Mn2Co5O16,0.6991
mp-1176265,Li9Mn2Co5O16,0.2784
mp-1176588,LiNiO2,0.3414000000000001
mp-1176688,LiFeSiO4,1.6595999999999995
mp-1177933,Li2MnVP2(HO5)2,0.4882
mp-1178206,Ga3NO3,1.0879
mp-1179270,V3(H3O5)2,1.9352
mp-1179336,SnSe,0.4098999999999995
mp-1183211,BSbO3,1.4014999999999986
mp-1187515,YbSnO3,1.7044999999999997
mp-1191221,CoN6(ClO)2,0.4454999999999999
mp-1192295,Li3Al(BO3)2,4.8733
mp-1193101,SrMnO3,0.3297000000000003
mp-1193560,NbPb2Se2ClO8,2.3684000000000003
mp-1195647,NaY(BH4)4,5.8178
mp-1197034,NaMnH6C3S3(NO)3,3.3829
mp-1203190,Mn2O3,0.24259999999999995
mp-1220911,Nd2S3O17,0.9776
mp-1221258,Na2ThF6,6.4791
mp-24591,ZnH2SeO4,4.339899999999999
mp-31629,Ta2CrO6,1.0322
mp-35555,LaOF,4.7503
mp-540117,LiFe2(PO4)3,0.13029999999999994
mp-540378,VP2O7,1.3194
mp-540381,LiCrPO4,2.7463
mp-540391,CoPO4,1.0241
mp-540392,LiCrPO4,2.669
mp-540393,CrPO4,1.2009999999999998
mp-540396,Li3Fe(PO4)2,2.2211
mp-540409,FeP2O7,0.1263
mp-540415,LiMnP2O7,0.6864999999999999
mp-540420,LiFe2(PO4)3,0.08079999999999997
mp-540421,Li2MnP2O7,4.1701
mp-540423,LiCr(PO3)4,3.4423
mp-543039,TePbO3,3.0439000000000003
mp-543042,ScP(H2O3)2,4.8638
mp-543045,Tl2CO3,2.902200000000001
mp-543096,NiO2,1.4616999999999998
mp-5440,AlPO4,5.612
mp-5448,Pr3SbO7,2.7215
mp-545344,NdTe2ClO5,0.2479999999999993
mp-545379,InBiO3,0.04959999999999986
mp-545387,K4CO4,2.3359
mp-545404,SrGd2Al2O7,2.6254000000000004
mp-545482,PdSeO3,1.0589
mp-545488,SiO2,0.30210000000000026
mp-545525,NbCuO3F,0.17310000000000006
mp-545529,NdBi2ClO4,1.1834999999999996
mp-545598,UCdO4,1.9428
mp-545603,Ba2BiSbO6,1.6438999999999997
mp-545630,K4CO4,2.1430000000000002
mp-545643,BaCO3,3.9622
mp-545712,LiUO3,0.41359999999999975
mp-545719,SiO2,4.8294
mp-545728,PrBi2IO4,1.2299000000000002
mp-545735,Ba2NdRuO6,0.1256999999999997
mp-545746,KSO4,3.559
mp-545760,Rb4CO4,1.7482000000000002
mp-5459,Nd2TeO2,1.5804
mp-546079,MgCO3,5.1935
mp-546125,ScAsO4,3.5491
mp-546152,SmBi2ClO4,1.6805999999999996
mp-555030,NaY(PO3)4,5.5938
mp-555034,TeAs(IF2)3,1.8895
mp-555050,BaNb2O6,2.9041
mp-555059,TcSb(OF4)2,2.8188
mp-555063,Nd2As4O9,3.367
mp-555069,Tb2SnS5,0.1299999999999999
mp-557001,RbSO4F,2.4272
mp-557004,SiO2,5.5806
mp-557016,TaP4S6Cl5,2.2644
mp-557019,RbErSeCl2O3,4.3116
mp-557022,Sb8Cl2O11,2.8915
mp-557024,SiO2,5.6788
mp-557026,ZnS,2.0263
mp-557027,Rb2Be2Si2O7,4.3938
mp-557028,Sr2LaTa3O11,3.0179
mp-557029,PtS4N3Cl,1.5035999999999998
mp-559330,Sr4B14O25,5.206200000000001
mp-559335,ZnAg2C4(SN)4,3.0003
mp-559336,NaNb3(TeO4)4,2.0237000000000003
mp-559337,Nd7(S2Cl3)3,2.2068
mp-559344,WSF4,3.3106
mp-559347,SiO2,5.6325
mp-559350,ZrS4(N2Cl3)2,1.5324
mp-559360,SiO2,5.664199999999999
mp-559369,Zr2H12(N2O7)5,1.4476
mp-561301,SiO2,1.9962
mp-561303,NaSb(PS3)2,2.1465
mp-561306,NbCoO4,1.6468
mp-561313,Si2Ag6O7,0.30810000000000004
mp-561317,Rb2NiF4,4.5279
mp-561326,LuSeO3F,3.9052
mp-561329,SeS2(NCl)2,1.7656999999999998
mp-567437,Pd(Se4Cl)2,1.3384999999999998
mp-567471,HgI2,1.3495
mp-567483,CdI2,2.3655
mp-567484,PtCl2,1.1359
mp-567491,Rb4Ti2P6Se25,1.1851
mp-567504,CrCl3,1.5182
mp-567505,SiC,1.7772000000000006
mp-567515,Rb2Hg2PdBr8,1.4609999999999999
mp-567534,CdI2,2.3485
mp-567551,SiC,1.9716000000000005
mp-567555,Pr5C2Cl9,1.6350000000000002
mp-567567,CdI2,2.3515
mp-567568,SrCa2WN4,2.6190999999999995
mp-567594,Cs2HgI4,2.0645
mp-567628,Rb2LiDyBr6,4.1868
mp-567644,RbCu2Br3,1.6366000000000005
mp-567655,Sr2C(NCl)2,4.2023
mp-569340,Rb2ZnN12,3.7716
mp-569342,RbH3WO7,3.1265
mp-569348,TlGaBr4,3.5506
mp-569349,Rb2HgPSe5,1.3726000000000005
mp-569378,Rb3Ta2AgSe12,1.425
mp-571490,Pr3CCl5,2.3972999999999995
mp-571501,Pr13Zn58,0.15629999999999988
mp-571514,CdI2,2.36
mp-571516,CdI2,2.3913
mp-571526,Rb2PtC4(BrN2)2,2.0048
mp-571535,CdI2,2.3615
mp-850357,Sm2V2O7,0.9583
mp-31690,Cr(PO3)3,1.949
mp-31704,Tl2Cr2O7,2.2802
mp-540427,V(PO3)4,1.5689
mp-540433,Li2Fe3(P2O7)2,3.8427
mp-540438,LiMn(PO3)3,3.9841
mp-540439,Mn(PO3)3,1.0507
mp-540444,CrPO4,0.7435999999999998
mp-540447,LiNi(PO3)3,3.9183
mp-540450,LiV(PO4)2,1.2990999999999997
mp-540459,LiCr4(PO4)3,2.6339
mp-540462,LiCrPO4,2.6419
mp-540463,CrPO4,2.0334000000000003
mp-540469,Li2Co3(P2O7)2,2.9026
mp-540471,LiMn(PO3)3,3.9814
mp-540475,LiMnPO4,3.4374
mp-540477,Li2Mn(PO3)4,3.8816000000000006
mp-540482,LiCrP2O7,1.2397
mp-540491,Co(PO3)3,1.2056
mp-540503,Li6V3P8O29,1.473
mp-540522,Mn4(PO4)3,0.04269999999999996
mp-540530,Li2Co(PO3)4,2.8595
mp-546350,TmBi2BrO4,1.3546
mp-546551,Na4CO4,3.3335
mp-546643,K4CO4,1.8352
mp-546684,PdSeO3,0.6831
mp-546707,Na4CO4,2.4246
mp-5468,Na3AlF6,5.8904000000000005
mp-546877,V7O3,0.14430000000000032
mp-546973,SrSnO3,0.9698000000000002
mp-547094,RuO4,2.3828
mp-547125,TbBi2ClO4,1.3439000000000003
mp-547244,SrBiClO2,3.3015
mp-547622,Pm2O3,3.8668
mp-5478,TlPd3O4,1.0564999999999998
mp-5479,RbAlF4,6.8752
mp-547956,MnV2O6,1.6373
mp-548598,U(BiO3)2,1.5930000000000002
mp-548609,Tl2Cu(SO3)2,0.14369999999999994
mp-548658,RbPO3,4.5235
mp-5487,Sr3SiO5,3.7603
mp-549333,NdBi2IO4,1.2653999999999996
mp-549475,TbBi2BrO4,1.2894
mp-549565,Li4CO4,3.8023
mp-549590,RbClO2,2.3707000000000003
mp-549687,K4CO4,1.4359
mp-549869,K4CO4,2.5006000000000004
mp-550008,ScBiO3,0.6928999999999998
mp-550086,V2CuO6,0.3328
mp-550111,SmBi2BrO4,1.2782999999999998
mp-550117,Sm4Se3O4,1.2744000000000004
mp-5503,ErTaO4,4.0531
mp-550436,V2CdO6,2.2554
mp-550474,Li4CO4,3.9008
mp-550498,Li4CO4,4.6576
mp-550547,K4CO4,0.9476
mp-550679,Rb4CO4,1.6732999999999998
mp-550908,SrHfO3,3.6761
mp-551176,Rb4CO4,3.132
mp-5512,Sr4Al14O25,3.9459
mp-551203,Sr2I2O,3.4218
mp-551267,Rb4CO4,0.5892
mp-551437,Rb4CO4,1.1243999999999998
mp-551470,Tl2O,0.5194000000000001
mp-551561,K4CO4,2.0349000000000004
mp-551601,V2ZnO6,2.436
mp-551690,Rb4CO4,0.4896
mp-555077,Sn2IF3,2.3751
mp-555079,ZnS,2.02
mp-555080,PH7CN3O3F,5.0802
mp-555088,Nd4(SBr2)3,2.8092
mp-555089,SrLi4Ca(SiO4)2,4.8295
mp-555094,PrPH5CO7,3.7298
mp-555096,PrS2,0.3433999999999999
mp-555097,Tb3Si2Cl5O6,4.6896
mp-555100,NbBiO4,2.5161
mp-555105,Ta9Pb12O20F29,2.4923
mp-555108,PH9C(NO)4,5.0103
mp-555109,TmNbO4,3.4278000000000004
mp-555113,Rb3Cu2(BiS2)5,0.5187000000000004
mp-555118,NaPO3,5.081
mp-555119,SrTaF7,5.4906
mp-555122,Rb2Pd(NO3)4,1.8948
mp-555136,SN,2.3644
mp-557040,Lu(PO3)3,5.6663000000000014
mp-557054,ZnS,2.0447
mp-557057,NbO2,0.16549999999999976
mp-557059,RbSnS4,1.3253999999999997
mp-557076,SiO2,4.0465
mp-557080,SiH17S3N5,3.344
mp-557085,FeS4N4Cl3,0.8885000000000001
mp-557089,Rb2Zn3(P2O7)2,4.4147
mp-557092,Y3Si2Cl5O6,4.5564
mp-557101,Sn(S4I)4,1.7663
mp-557122,RbAu(SeO4)2,1.4106
mp-559379,SbTeClO3,3.1498000000000004
mp-559383,RbLuP2O7,5.0946
mp-559385,SrHo2O4,3.7325
mp-559389,SiO2,4.1899
mp-559391,Pr3Si2Cl3O7,4.8449
mp-559398,Tm4Mo4O11,0.4676999999999998
mp-559400,BeF2,8.085
mp-559408,NiPbF6,2.2269
mp-559420,Sb4PtC4(O2F11)2,3.5057
mp-559434,Tb(BO2)3,5.2947000000000015
mp-559437,Zn(CO2)2,3.198
mp-559441,LiTiPO5,3.0747
mp-559446,NaPPdS4,1.1721999999999997
mp-561344,Rb2CrF5,3.4227
mp-561351,SiO2,5.4512
mp-561353,NaZr2MnF11,4.2206
mp-561355,TiSCl6O,2.6524
mp-561359,V3CdO7,2.2417
mp-561374,CaTeO3,3.1241000000000003
mp-561375,Pr10S19,0.5101000000000004
mp-561382,NbBi4BrO8,1.4756999999999998
mp-561384,ZrF4,4.8934
mp-561385,SrTeO3,3.4131
mp-561392,TcSO6F,2.721
mp-561397,SO3,5.1414
mp-561400,NaZr2AgF11,0.5246999999999999
mp-561405,SnH8(CO)4,4.481
mp-561407,RbGaS2,2.4690000000000003
mp-567671,VCdClO3,2.7025
mp-567681,CsPbBr3,2.8808
mp-567714,Rb2AgBr3,2.6666
mp-567731,Nb3Se10Br3,1.2229
mp-567741,PC2N3Cl4,3.746
mp-567744,SrBr2,4.4697000000000005
mp-567763,Pr(C2N3)3,3.5795
mp-567780,RbSn2Br5,2.3889
mp-567794,ZnH16C4(Br2N)2,4.0687
mp-567855,RbGeI3,2.1987
mp-567864,TlBi(PSe3)2,1.3847
mp-567873,RbSmGeSe4,1.857
mp-567874,Pr(AlBr4)3,3.3654
mp-567899,RbSi2H18C6N,3.1382000000000003
mp-567907,P3N5,3.5526
mp-567914,TeI4,1.7690000000000001
mp-567917,TlBi(PSe3)2,1.4412000000000005
mp-567940,RbPr6(CI6)2,0.16639999999999988
mp-567944,BCl,3.3184
mp-567948,Rb2Pd(IBr2)2,0.5302
mp-567966,RbZr6CCl15,1.1281
mp-568008,Rb3Mn2Cl7,0.8370000000000001
mp-568018,RbSb2,0.2653000000000003
mp-568020,Tl3SiTe3,1.0854
mp-568024,ICl,1.4693
mp-568031,GaHg2SbCl4,0.8072
mp-569386,P3NCl12,1.9051
mp-569410,PCl5,1.6455000000000002
mp-569442,RbAuCl4,1.921
mp-569467,Ag5Te2Cl,0.7464
mp-571538,CdI2,2.3499
mp-571539,CdI2,2.3609
mp-571540,ZnCl2,4.0185