task_id,pretty_formula,band_gap
mp-23146,TlZnSClO4,4.357100000000001
mp-23164,Bi2Se3,0.9558
mp-23165,PtBr3,0.9518
mp-23166,NpBr3,0.006800000000000139
mp-23169,Pr2Br5,0.2824
mp-23174,ReCl3,0.9625
mp-23176,SbCl5,1.8233
mp-23178,WCl6,1.7484
mp-23181,SrI2,3.8415
mp-23183,NdCl3,4.2997999999999985
mp-23185,XeF4,2.8225
mp-23195,Bi2O3,1.6582000000000003
mp-23197,TlI,1.8128
mp-23211,PrCl3,4.3439
mp-23212,CuBr,0.16990000000000016
mp-23214,CaCl2,5.3949
mp-23216,SnBr4,2.7003
mp-23220,YbCl2,5.5411
mp-23221,PrBr3,3.4284
mp-23226,Nb6I11,0.2782
mp-23228,PCl5,1.7747
mp-23230,PCl3,4.0342
mp-23238,Ta3I7,0.8864000000000001
mp-23240,CoCl2,0.15389999999999993
mp-23256,BCl,0.9004000000000001
mp-25840,LiTi2(PO4)3,2.5563
mp-25881,LiBi(PO3)4,4.8431000000000015
mp-25885,LiCuPO4,0.3915000000000002
mp-25896,SbP2O7,0.11960000000000015
mp-25908,Sn(PO3)4,3.4585000000000004
mp-25929,Li3Bi2(PO4)3,3.7495
mp-25946,Sb2P5O16,0.0757000000000001
mp-25959,LiBi(PO3)4,4.1457
mp-26114,Ti(PO3)4,2.7703
mp-26157,LiSb(PO3)4,4.462999999999999
mp-26209,LiBiP2O7,4.1503999999999985
mp-26247,Li5Cu(PO4)2,1.7933
mp-26267,Li2Cu(PO3)4,0.25249999999999995
mp-26299,LiSnPO4,3.8438
mp-26407,Li2SnP2O7,4.118600000000002
mp-28476,SrBiSe3,0.4969000000000001
mp-28478,NaTe3,0.5092000000000003
mp-28479,Sc2CCl2,0.8824000000000001
mp-28481,Ti(ClO4)4,2.9081
mp-28483,WBr6,1.0698
mp-28485,Sb5IO7,2.4399
mp-28490,Tl3BSe3,1.226
mp-28509,Ta4SiTe4,0.028599999999999962
mp-28513,Pb(ClO3)2,4.3237000000000005
mp-28517,Tl6SeI4,1.6895000000000002
mp-28518,Tl6SBr4,1.8131
mp-28531,Rb2Ta15O32,0.05679999999999996
mp-28538,SiH3I,4.2153
mp-28545,RbLiO,2.2543
mp-28555,RbSF5,4.6838
mp-28562,RbAsSe2,1.6284999999999998
mp-28563,CsAsSe2,1.4159
mp-28564,Rb4PbBr6,3.9028
mp-28566,NaTiSe4,0.916
mp-28568,Rb3CuO2,1.4327
mp-29847,Tb4BBr6,0.009400000000000295
mp-29866,SnCl4,3.551
mp-29878,Re2PCl13,0.8083
mp-29880,Sm2SCl4,3.5037
mp-29883,Rb3PbCl5,4.2828
mp-29887,Pr(ClO4)3,4.8822
mp-29890,Th2AuF11,2.3115
mp-29898,Tl2Au4S3,1.1304999999999996
mp-29903,TlTeF5,4.4514
mp-29904,SbXe2F9,1.981
mp-29922,Sb5PO10,3.1373
mp-29924,Nb3Cl5O2,0.8504
mp-29929,NaLi5N2,2.6507
mp-29934,Zr6Ag7F31,2.799
mp-29936,Rb2PdI6,1.1296
mp-29940,SbClF10,2.3471
mp-30989,Sn(NO3)4,3.6378
mp-30996,RbAuBr4,1.4507
mp-30997,ZrTlF5,4.8447
mp-30998,Ti(NO3)4,2.8211
mp-31002,Rb2Te5,0.22820000000000015
mp-31004,Sn(SO2)2,2.7104
mp-31005,Zn3(PO4)2,3.5343
mp-31013,U(BO3)2,2.2449
mp-31014,ZrP2S7,1.6603
mp-3102,TaCuS3,0.4199999999999999
mp-31034,ThF4,6.5408
mp-31039,Rb6Te2O9,0.8486999999999998
mp-31040,NbCl4,1.0765
mp-34141,Sr(LaS2)2,2.2358
mp-34150,SiO2,1.0619999999999998
mp-34195,BaCO3,4.3419
mp-34210,Al2ZnO4,3.0302999999999995
mp-4975,RbZnF3,4.0807
mp-4991,Tb2Sn2O7,2.7218
mp-4995,LiSbO3,2.137900000000001
mp-5014,CuAgS,0.5629
mp-5024,ZrP2O7,4.4725
mp-5026,MgSiO3,4.6064
mp-504102,Li(NiO2)2,0.008399999999999963
mp-504149,FePO4,2.8055000000000003
mp-504166,Ni(PO3)3,0.4439
mp-504186,Li3Fe2(PO4)3,2.4969
mp-504207,LiSb(PO3)4,4.1221
mp-504212,Mo2P3O13,0.0040999999999999925
mp-504214,LiCoP2O7,1.6818
mp-504222,MoP2O7,1.6828
mp-17382,Rb2Si3SnO9,3.7986
mp-17391,Sm3Rh2,0.00199999999999978
mp-17394,NaYGeO4,3.647
mp-17401,Rb3Sn4Au,0.5795000000000003
mp-17404,Y2Si2O7,5.1098
mp-17418,SmSnF7,4.9484
mp-17438,Na2GeF6,5.6049000000000015
mp-17446,PrPtF7,2.4352
mp-17461,NaTiP2O7,0.06989999999999963
mp-17464,SrGeO3,3.4068
mp-17468,SrZrSi2O7,4.7096
mp-17490,Rb5SiAs3,0.3756999999999999
mp-17495,RbTiP2O7,0.10890000000000022
mp-17504,Sr3(GeAs2)2,0.7808999999999999
mp-17509,Rb2NaCr(CN)6,1.8634
mp-17512,Zn(AuF4)2,1.6950000000000005
mp-20070,GdTiGe,0.010000000000000677
mp-20104,RbAg3S2,0.4160999999999999
mp-20134,KCN,5.0215999999999985
mp-21525,RbPb,0.40500000000000025
mp-21562,Sm3InSe6,0.7092999999999998
mp-21567,SmAl3(PbO4)2,2.9907
mp-21575,Pr3InSe6,0.6879000000000004
mp-21604,Sm3InS6,0.9909
mp-21618,NdAl3(PbO4)2,2.9857
mp-21621,Y6Te2Rh,0.007899999999999352
mp-23270,Th3Bi4,0.09229999999999984
mp-23273,TeI,0.7793000000000001
mp-23278,NpCl3,0.011800000000000031
mp-23287,CuCl,0.4439000000000002
mp-23293,TbCl3,3.7957
mp-23299,RbCl,4.7794
mp-23302,RbI,3.3455
mp-23303,RbBr,3.922
mp-23305,EuI2,1.3090000000000002
mp-23307,NbCl5,2.2205
mp-23309,ScCl3,3.8723
mp-23332,BiPO4,2.0128000000000004
mp-23335,Ti3(BiO3)4,1.3813000000000004
mp-23347,Rb4YbI6,3.6915
mp-23350,Rb2PtCl6,1.9363
mp-23355,PAuCl4,2.5498000000000003
mp-23357,Sr2Bi2O5,2.2554000000000003
mp-23366,Rb2CoBr4,0.6409999999999999
mp-23375,PNCl2,4.1175
mp-23380,Tl3PbI5,2.6249
mp-23383,Rb2TeBr6,2.0549
mp-23386,Sn2SI2,1.6146000000000005
mp-23390,RbCdCl3,3.5541
mp-23391,Tl4CrI6,0.4015999999999997
mp-23399,Rb2AgI3,2.5761000000000003
mp-23404,TlBrO4,2.9991
mp-26513,LiCuPO4,0.0939000000000001
mp-26541,LiSb(PO3)4,4.2104
mp-26630,TiP2O7,2.7319
mp-26649,Li2SnP2O7,4.0479
mp-26675,LiSb(PO3)4,4.2484
mp-26695,Li2CuPO4,2.008
mp-26702,LiSn2(PO4)3,3.3131000000000004
mp-26710,LiSnP2O7,0.13139999999999974
mp-26745,LiSbP2O7,3.3047000000000004
mp-26855,Li2Sn(PO3)4,3.9056
mp-26875,Li2CuPO4,1.4313000000000002
mp-26884,LiTi2(PO4)3,2.672
mp-26897,LiSn(PO3)3,3.1143
mp-27018,SnPO4,2.4403000000000006
mp-27069,Li3Bi2(PO4)3,4.0424
mp-27093,Li3Sn2(PO4)3,2.611
mp-27094,LiSn2(PO4)3,3.3939999999999997
mp-27122,LiSn2(PO4)3,3.5637
mp-27129,Y7(O2F3)3,2.7161000000000004
mp-27132,Zr2P2O9,4.1075
mp-27141,P2H8O9,5.5562999999999985
mp-27144,TlPO3,3.4606
mp-28575,W(S4Cl3)2,0.6466000000000001
mp-28577,RbBrF4,3.3548
mp-28580,Y2NCl3,2.1398
mp-28583,Si2NCl5,5.0863
mp-28584,Tl2CuI3,1.5759999999999996
mp-28611,ThTa2O7,2.6556000000000006
mp-28620,Zr3SO9,3.8055
mp-28633,Re(TeCl6)2,0.8652
mp-28636,Os2(CO)7,1.9918
mp-28641,ThB2O5,4.8186
mp-28653,NdTa3O9,3.2140000000000004
mp-28662,Tl2SnTe3,0.4986000000000006
mp-28671,ZrTe2Br5,1.1092
mp-29920,Rb5Au3O2,0.8051000000000001
mp-29950,Nb3Cl8,0.1459999999999999
mp-29954,Tb16B4Br23,0.008199999999999985
mp-29959,TlBSe3,0.9044000000000004
mp-29961,Sr(C2N3)2,4.6654
mp-29968,NbSeCl9,2.0713
mp-29978,Sr5Al2F16,6.9343
mp-30004,Rb4Br2O,0.5864
mp-30005,Rb6Br4O,1.5308000000000002
mp-30011,SbKrF7,2.3799
mp-30013,SbKr3F11,1.3064
mp-30018,Rb2ZnI4,3.11
mp-30026,Sr3Te4O11,3.1808
mp-30027,RbCrCl3,0.4951999999999999
mp-31060,Rb4(BS)9,3.1228
mp-31062,Y(PO3)3,5.7608
mp-31065,Sc2(SeO3)3,3.8037
mp-31067,Nd(ClO4)3,4.8807
mp-31068,P2Pb4O9,3.2074
mp-31069,P2Pb8O13,2.0642
mp-31086,NaP5,1.3890000000000002
mp-31105,RbBi,0.37770000000000015
mp-31112,Tb3GaO6,3.6054
mp-31117,NdScO3,4.2936
mp-31118,SmScO3,4.3579
mp-31119,TbScO3,4.436
mp-31127,Sr3P4O13,5.2118
mp-31134,PtCl3,1.0698
mp-31135,Si19Te8,0.8865999999999996
mp-34237,Mn2CuO4,0.006399999999999739
mp-34260,ZrF4,4.358900000000001
mp-34278,K(WO3)6,0.21830000000000016
mp-34284,NaNdF4,7.206099999999998
mp-34287,Ti3Fe7O15,1.2905000000000002
mp-34291,Zr3InF15,5.4053
mp-34292,Tl9SbTe6,0.6131000000000002
mp-34309,Pr2EuS4,0.4721000000000002
mp-34326,Li6Br3N,2.2169
mp-3435,Nd3Cu3Sb4,0.19750000000000068
mp-34361,Tl9BiTe6,0.6109
mp-3442,CaTiO3,2.2434
mp-34439,Tb10Ti6O27,2.6133
mp-3446,SrTm2O4,3.8127
mp-34475,Ta2MnO6,1.9302
mp-34477,LiSmS2,1.9214
mp-34489,LiInSe2,0.3941999999999997
mp-504218,Li6Fe3P8O29,0.1699
mp-504251,Mn4(PO4)3,0.06300000000000018
mp-504264,LiCuPO4,0.5025
mp-504265,CuPO4,0.3613
mp-504329,Fe3(P2O7)2,0.6099000000000001
mp-504357,Cr4(PO4)3,0.5987999999999998
mp-504376,Li6Co5(P2O7)4,2.2221
mp-504382,MnPO4,0.053099999999999925
mp-504385,Li3Fe2(PO4)3,2.5408
mp-504397,LiMn4(PO4)3,3.3117
mp-504427,Ti3PbO7,1.9724
mp-504474,TbHO2,4.7376000000000005
mp-504531,CuH20S2(NO7)2,0.5273
mp-504559,Pr2W2O9,3.4973
mp-504564,Si(PbS2)2,2.0436999999999994
mp-17559,Y2TiO5,3.2733
mp-17569,SmPtF7,2.3817
mp-17617,K2Ti(Si2O5)3,3.4437
mp-17620,TmBO3,2.3564
mp-17637,USO6,1.9501
mp-17638,Rb3SbSe4,1.3317
mp-17649,TlSnF7,1.8252
mp-17660,SrPrCuSe3,1.0198999999999998
mp-17661,RbNd(PO3)4,5.3014
mp-17667,Sr3AlSb3,0.5371000000000006
mp-17676,Sr2SnS3F2,2.0801
mp-20162,InAgS2,0.1081999999999992
mp-20174,Ni3Sn4,0.015100000000000337
mp-20178,CeBO3,0.005600000000000271
mp-20205,Yb2Cu2O5,0.922
mp-20222,Sr2NbInO6,3.3866
mp-20244,ZrPbS3,1.2455000000000005
mp-21644,BaNb8O14,0.20310000000000009
mp-21662,TiFeSi2,0.0107999999999997
mp-21688,Fe7S8,0.022800000000000157
mp-21723,SiPbO3,3.1566
mp-21724,ZnSiPbO4,3.1014000000000004
mp-21733,Sr(InSe2)2,1.7062
mp-21760,Rb2In2Sb3,0.7399999999999998
mp-21767,Si2Pb3O7,2.6294
mp-21781,Sr(InS2)2,2.2643000000000004
mp-23408,Tl4Bi2S5,0.9896999999999996
mp-23410,Nb3Se12I,0.07420000000000028
mp-23411,K2TeBr6,2.1407
mp-23412,SbCl4F,1.3762
mp-23419,Sb4Cl2O5,2.6435
mp-23440,Y6C2I7,0.032399999999999984
mp-23452,Sn3BrF5,3.0281
mp-23454,CsAgBr2,2.0574
mp-23457,PBr2N,3.0406
mp-23472,Re(AgCl3)2,0.8258
mp-23475,Rb2PbCl6,1.254
mp-23486,RbNiCl3,0.7213999999999998
mp-23488,Tl5Se2I,0.7101999999999995
mp-23495,K2ZnBr4,3.6561
mp-23498,NbSeBr3,0.7308999999999999
mp-23499,K2SnCl6,2.4635
mp-23505,K2TeBr6,1.9579
mp-23517,RbPbI3,2.4562
mp-23522,BaZnCl4,4.5948
mp-23536,SbI3Cl8,1.1884
mp-23553,GeBi2O5,2.3809
mp-23556,Rb3Mn2Cl7,1.2397000000000002
mp-23563,SiCl2O,5.5534
mp-23568,XeN2(OF4)2,2.1924
mp-23574,SbPCl8O,1.8685
mp-27147,Rb3BiBr6,3.3
mp-27164,FeP4,1.0765000000000002
mp-27173,P4Ru,1.2576999999999998
mp-27176,NaMnCl3,2.2823
mp-27180,NdSBr,2.6374999999999997
mp-27189,Si3Cl8,4.7516
mp-27205,TlCl2,2.2405
mp-27208,RbMgCl3,4.7503
mp-27210,RbTlF4,2.7647
mp-27212,Sb2IF15,3.8902
mp-27220,Tl5SbO5,1.4702000000000002
mp-27229,Sb6S2O15,3.2471999999999994
mp-27234,Cu(IO3)2,0.327
mp-27238,SbXeF9,2.1416
mp-27240,UCl5,0.3309
mp-27252,TlCdI3,2.1764
mp-27256,Sb2(S2O7)3,4.1996
mp-27257,PBr3,3.3243
mp-28672,Zr2TeBr12,2.4198
mp-28683,Ta(ICl)2,1.1785
mp-28686,Ni(H2N)2,1.1222
mp-28688,SrHgO2,2.1807
mp-28691,TaTe4I,0.4956
mp-28703,RbAg5S3,0.7610000000000001
mp-28707,PrNb5O14,1.9449
mp-28711,Sb2S2O,1.2374
mp-28712,Si2Hg6O7,1.4980000000000002
mp-28721,Pt(SCl4)2,1.9113
mp-28722,Pt(SCl3)2,1.8217
mp-28736,Pr4RuI5,0.000399999999999956
mp-28744,Y4OsBr4,0.7020999999999997
mp-28745,Nb2Te6I,0.6360999999999999
mp-28746,Pr3RuI3,0.02059999999999995
mp-28752,Ta7Cu3O19,1.1795000000000004
mp-28757,Nd(AlBr4)3,3.3848000000000003
mp-28772,SbSCl9,1.6041
mp-30051,Si3CCl7,4.005
mp-30058,TlSbO3,2.4341
mp-3006,P2Pd3S8,1.5779
mp-30089,CsH3O2,4.7128
mp-3009,Rb2BeF4,6.6674
mp-30092,TiCl4,3.4576
mp-30099,PdSCl,1.1314
mp-3010,Rb2TbF6,0.02279999999999971
mp-30107,RbNb4Cl11,0.44499999999999984
mp-30109,Sb2(AuF6)3,0.16720000000000002
mp-30113,Zr(Se2Cl3)2,1.3186
mp-30117,W2CCl8,1.2971
mp-30127,Rb3B7O12,4.4829
mp-30140,BeI2,4.1401
mp-30143,U(IO4)2,2.0424
mp-31150,Sr2Bi3,0.03110000000000035
mp-31213,Sr4Ti3O10,1.7813000000000003
mp-31245,Tb2Te4O11,3.2575
mp-31256,U(SbO3)2,1.2887000000000004
mp-34569,Mg(FeO2)2,1.5759999999999996
mp-3457,ErP5O14,5.4441000000000015
mp-34584,Zr4N2O5,2.3774
mp-34591,NbFeO4,2.1631000000000005
mp-3466,PrAlO3,4.1325
mp-34663,NaAsSe2,0.028200000000000006
mp-504576,OsOF5,0.7822999999999998
mp-504580,VCuO3,0.6943999999999999
mp-504598,Rb2PbO2,1.8864000000000003
mp-504614,Sm3(GaNi3)2,0.030899999999999924
mp-504665,P2W3O13,0.8175999999999999
mp-504693,MnSO3,4.0952
mp-504747,V2Cu3O8,0.004900000000000127
mp-504748,P3Pb5ClO12,3.3891000000000004
mp-504751,AsHPbO4,2.9932000000000007
mp-504752,Fe3BO5,0.9327
mp-504810,Rb2Li14Pb3O14,2.0836
mp-17678,Sr(ScS2)2,1.3569999999999998
mp-17679,RbNb(PO4)2,3.0886
mp-17693,SrCdP2O7,3.7032
mp-17715,SrTa2O6,3.229
mp-17722,PrTaO4,3.5750999999999995
mp-17738,Sr2Cu(SeO3)3,0.4611000000000001
mp-17741,Sm2ReO5,0.7924999999999995
mp-17743,Sr3Sn2O7,2.1597
mp-17765,Ta2ZnO6,3.0662000000000003
mp-17769,YSO4F,5.8491
mp-17777,Sr5As3O12F,3.902600000000001
mp-17803,Nb2Tl4S11,1.2121
mp-20307,Np(CuGe)2,0.0065000000000008384
mp-20396,RbCa2Nb3O10,1.4813999999999998
mp-20397,Sr(InTe2)2,0.8837999999999999
mp-21794,Sm2Si2O7,4.7966
mp-21801,Rb4PbO3,2.1723
mp-21806,YNi5Ge3,0.01529999999999987
mp-21858,UO3,1.9038
mp-21863,Pd3(PbS)2,0.19099999999999984
mp-21872,PrLuO3,4.8752
mp-21899,UZnNi4,0.004200000000000871
mp-21904,PbS2O3,3.5394
mp-23602,TaBi4ClO8,1.6173000000000002
mp-23609,Zn3B7ClO13,4.4852
mp-23614,SrNb2Bi2O9,2.4638
mp-23615,Si2Bi14IrI12,0.15620000000000012
mp-23622,Sm3Si2ClO8,4.4572
mp-23626,RbLi2(IO3)3,3.8184
mp-23630,NbBi4ClO8,1.3611
mp-23635,TlRe6Se8Cl3,1.4347
mp-23664,YH3(CO2)3,3.988
mp-23688,RbH3(CO2)2,4.8136
mp-23697,K3AlH6,1.7988000000000002
mp-23700,RbH2OF,5.3401
mp-23707,ReH12C4O5F,2.968
mp-23711,MgH2,3.6284
mp-23712,MgH2,1.9528
mp-23714,SrH2,3.1544
mp-23720,BeAlH5,3.6010000000000004
mp-23724,KHCO3,5.0058
mp-23730,NaMgH3,3.103
mp-23738,RbMgH3,2.5405
mp-23739,SiH4,6.562100000000001
mp-23751,CsMgH3,2.6161000000000003
mp-23752,Cs2MgH4,2.9953000000000003
mp-23763,SnH8(NCl3)2,2.3166
mp-27263,Rb2MnBr4,1.1516
mp-27264,NaTiF4,0.202
mp-27267,ReP4,0.7559000000000005
mp-27271,Tl8Ge5O14,2.2104
mp-27277,PCl3O,4.4528
mp-27278,P(HO)4,5.7898000000000005
mp-27283,TlPb2Cl5,3.4637
mp-27288,RuXeF7,0.9089
mp-27293,Tl4HgBr6,1.8287
mp-27297,ReCl4O,0.647
mp-27300,RbAuBr3,0.7293
mp-27301,Rb3Au3Cl8,0.8124
mp-27308,SbBrF8,2.6902
mp-27312,Nb2SeF14,4.8422
mp-27313,NbSeF9,5.045
mp-27314,SbClF8,3.1317000000000004
mp-27316,Rb5Zr4F21,5.6715
mp-27317,SbAsF8,3.8632
mp-27318,Sb3(BrF8)2,0.05590000000000006
mp-27333,Tl3CoCl5,0.6109999999999998
mp-27337,Xe(OF)2,2.3643
mp-27339,Sb2(SO4)3,4.016299999999998
mp-27343,Re4Cl8O9,1.0174
mp-27351,SbN3Cl4,1.8875
mp-27353,SbCl2F3,1.8671
mp-27355,Pb2OF2,2.8476
mp-27358,Se2O5,2.885
mp-28781,PrZr3F15,5.7627000000000015
mp-28791,Se2NCl3,1.4143
mp-28804,TcO2F3,2.5259
mp-28805,Tl2Pt5S6,0.9634999999999998
mp-28808,TlReO4,3.3756
mp-28809,TlBS3,1.7904000000000004
mp-28813,Si3CCl8,4.5168
mp-28815,ThSnI6,1.9876
mp-28818,RbCr5Se8,0.0035000000000002807
mp-28836,TeCF2,1.6616000000000002
mp-28845,OsO3F2,2.3101
mp-28857,Pb(IO3)2,2.6939000000000006
mp-28864,Y6IrI10,0.07249999999999979
mp-28870,PRhO4,0.9792
mp-28871,In3SnI5,2.004
mp-28881,Rb2UCl5,0.11590000000000035
mp-30145,Rb2Bi8Se13,0.5777000000000001
mp-30158,Sr3Ga4O9,2.8861
mp-30160,Si(CN2)2,4.2444
mp-30167,Rb3Os2Br9,0.4873000000000001
mp-3019,Tl4SnTe3,0.0037000000000002586
mp-30213,Sb2BrF15,2.97
mp-30229,Tb5C2Br9,0.7649999999999999
mp-30231,RbGaCl4,4.3998
mp-31266,YPS4,2.1327
mp-31271,RbCO3,3.9192
mp-31272,P2O9,3.0888
mp-31279,Rb4P21I,1.4267
mp-31286,K3Bi,0.024999999999999908
mp-31287,Tl3PdBr5,1.3458
mp-34735,Ho2CdS4,0.6539999999999999
mp-3476,P2PbO6,4.4803
mp-34770,Sr(GdSe2)2,0.9667000000000004
mp-34806,NaYF4,7.3401
mp-34898,Zr4N2O5,2.0388
mp-3496,S3(NO)2,1.6922
mp-35015,NaBiSe2,0.7066000000000003
mp-35033,ZnFe5O8,1.1689000000000005
mp-504811,Rb2Pb4O7,0.9863
mp-504814,Sb2Pb2S5,1.0418000000000005
mp-504825,SeCl,2.1687000000000003
mp-504826,S2N2O,1.916
mp-504828,NdH12(NO5)3,3.3038
mp-504830,S4N5F,2.4816
mp-504856,U2Ni12P7,0.003899999999999793
mp-504897,CeP5O14,0.10029999999999983
mp-504898,Nb2Pd3Se8,0.4910000000000001
mp-504902,SiBr2,2.6702
mp-504910,Sr(BrO3)2,4.1387
mp-504921,Sc7CBr12,0.10050000000000026
mp-504922,UPbO4,1.5100999999999996
mp-504934,Sc2CI3,0.5682999999999998
mp-504935,K2PbO3,1.2287000000000003
mp-504937,SbSe9Cl7,1.0831
mp-504944,NaP(HO2)2,5.1356
mp-504946,Nb2P4O15,3.2843
mp-504957,RbReCl4,1.0283
mp-504968,RbFeCl4,1.305
mp-504992,Fe7SiO10,0.09240000000000048
mp-505001,Rb3ZnBr5,3.593
mp-505011,YCo5P3,0.03779999999999984
mp-17808,Nb2Zn4O9,2.5331
mp-17812,Sm2SiTeO4,1.7845000000000004
mp-17823,Tl3B3S10,1.8863000000000003
mp-17825,Sr2SiO4,4.3767999999999985
mp-17829,Sr3SmRhO6,2.0203
mp-17830,Rb3Ge4Au,0.9193
mp-17832,RbBaPO4,4.995900000000002
mp-17835,Sn2Sb2S5,1.045
mp-17869,NaCuF3,0.07099999999999995
mp-17897,RbYP2O7,5.0221
mp-17904,Nd2TiO5,3.3138
mp-17906,PrF3,5.4589
mp-17909,SiO2,5.7313
mp-17912,Rb3SbSe3,2.3028
mp-17913,Tb2SiSeO4,2.5839
mp-17921,NbSeOF7,4.5147
mp-20414,U7Te12,0.0021000000000004353
mp-20434,GdSnAu,0.003300000000000303
mp-20450,YCrB4,0.15800000000000036
mp-20458,PtPbF6,1.9711
mp-20493,Mg(InS2)2,1.7643999999999995
mp-20495,Na2CO3,3.1421
mp-20507,PbSO3,3.6372
mp-21922,Te3(PbO4)2,2.9897
mp-22003,NaN3,4.0245
mp-22009,PbSe,1.6025
mp-22023,Pb3SO6,2.9360000000000004
mp-22026,Ce(NiSn)2,0.001300000000000523
mp-22048,Pt2PbO4,0.00649999999999995
mp-22052,Zn(InS2)2,1.1222000000000003
mp-22070,CeF3,0.002699999999999925
mp-23772,TbAg3H6C6(N2O)3,2.5767
mp-23781,Rb3H(SO4)2,5.2433000000000005
mp-23790,H4N2O3,3.0879000000000003
mp-23799,NaZnP2HO7,4.5108000000000015
mp-23827,Sr7(H6Cl)2,3.8615
mp-23828,Sr7(H6Br)2,3.7046
mp-23831,NdHSO5,5.5593
mp-23838,Zn2PH2CO7,3.523
mp-23860,SrHCl,4.0447000000000015
mp-23876,H8S(NO2)2,4.9871
mp-23891,NaHO,2.802
mp-23897,Rb3H(SeO4)2,3.6221
mp-23902,PH3O4,5.9151
mp-23925,TcH4NO4,3.2941
mp-23927,TiH12(NF2)4,4.5618
mp-23939,H2O2,4.1497
mp-27361,Nb(SeCl)2,0.9840000000000001
mp-27362,Nb(SCl)2,1.5101999999999998
mp-27367,SeOF2,4.0833
mp-27369,RbGeCl3,3.7552
mp-27370,P10Au7I,0.5276999999999994
mp-27373,SnClF,3.4437999999999995
mp-27374,NaAsSe2,1.2044
mp-27375,Tl4HgI6,1.1909
mp-27378,S4(BrN)3,1.7194
mp-27379,TeAsF5,2.1838
mp-27382,UTlF5,0.2090999999999994
mp-27383,Nb3CuO8,0.7487999999999997
mp-27386,TlHg5Cl11,2.7125
mp-27391,Na5Zr2F13,5.5535999999999985
mp-27396,NiCl2,0.7567000000000002
mp-27398,TlBr2,1.7922000000000002
mp-27400,RbCdBr3,2.7524
mp-27410,Sn4P3,0.031500000000000306
mp-27411,TlP5,1.1813000000000002
mp-27418,KAuO2,1.0739
mp-27421,RbBiF6,2.6172
mp-27425,Sr(HO)2,4.0304
mp-27431,Sn3BF9,4.3624
mp-27439,TmIO,3.3943
mp-28892,PH4N3,4.6014
mp-28898,BaCN2,2.247
mp-28903,Zr6FeCl14,1.446
mp-28905,SrC20,0.31179999999999986
mp-28913,Ti6CCl14,0.9476999999999998
mp-28920,Tl5Se2Cl,0.5641000000000003
mp-28921,Tl5Se2Br,0.38560000000000016
mp-28938,Nb3TeCl7,0.7004000000000001
mp-28940,Sr4Nb2O9,3.6457
mp-28947,NaSn2Cl5,2.9783
mp-28950,P4N6O,4.3472
mp-28952,PdSO4,1.0661
mp-28959,Si2Cl2O3,5.674
mp-28962,Ti4Bi2O11,2.0404000000000004
mp-28969,Pr2NCl3,3.3932
mp-28970,Nd2NCl3,3.343
mp-28971,Rb2Si2O5,4.0396
mp-28974,TiF4,4.166
mp-28982,Pd(PbCl3)2,1.4046
mp-28983,Pd(PbBr3)2,1.1813999999999998
mp-28985,SbSeCl9,1.9981
mp-28987,NaPt2Se3,0.9887
mp-30250,YAgO2,2.4154
mp-30251,YAuO2,2.6861999999999995
mp-30260,Zr8Ni21,0.007600000000000051
mp-30279,NpIO5,0.2121000000000004
mp-30285,Sb2MoS,0.006699999999999484
mp-30286,Hg2SeO3,2.1827
mp-30291,Tb4Se3N2,1.3474
mp-30292,Nd4Se3N2,1.3721
mp-30295,W6CCl18,1.1546
mp-30308,TlAuF6,1.4262
mp-30309,Y2Au5F21,1.7812
mp-30320,RbHfF5,6.797999999999999
mp-31292,Rb2PdSe16,0.8510000000000002
mp-31302,KCO3,4.1733
mp-31303,Pr4Se3N2,1.3762
mp-31304,Zr(TeCl)6,1.0257999999999998
mp-34036,NbBi3O7,2.139
mp-35171,NbO2F,1.3247
mp-3520,Y2SiO5,4.7718
mp-35205,LiErSe2,1.6045000000000005
mp-3523,SrGd2O4,3.01
mp-35281,Sm2CdS4,1.7573999999999996
mp-3531,Ca2P2O7,5.4165
mp-3535,RbCeS2,0.059499999999999886
mp-35404,Na2CeO3,2.1042
mp-35417,Li3TaO4,1.5777
mp-3547,MgSiO3,5.415499999999999
mp-35482,Ti(FeO2)4,1.1062
mp-3552,Li2Si2O5,5.24
mp-35527,Zr7(NO2)4,2.6082
mp-35591,LiErS2,1.9887
mp-35630,Pr2CdSe4,0.9727
mp-35663,Sr(InTe2)2,1.0210000000000004
mp-35712,Mg(GaO2)2,2.4173000000000004
mp-505088,NbTe4I,0.4905
mp-505142,Np(SiPt)2,0.012600000000000831
mp-505143,Pu(SiIr)2,0.011799999999999145
mp-505148,ThPbI6,2.4192
mp-505158,CsHoS2,2.1354
mp-505161,TmCu(WO4)2,1.2092
mp-505165,Sr4V3O10,0.04879999999999996
mp-505171,NaTiCuS3,0.15340000000000042
mp-505172,NaZrCuSe3,0.30420000000000025
mp-505177,TiIn2O5,1.9682000000000004
mp-505190,TbCu(WO4)2,1.4594
mp-505199,Ti(PO3)3,0.03149999999999942
mp-505225,UPO5,0.0037000000000002586
mp-505227,NiP4O11,4.9511
mp-17924,ZnP2PbO7,4.2572
mp-17926,Zr3Ni3Sb4,0.4371999999999989
mp-17929,RbHo2Cu3S5,1.4781999999999993
mp-17939,Na2SiF6,6.8676
mp-17948,Si(Hg2S3)2,0.4393
mp-17959,Nd2SiTeO4,1.7858999999999998
mp-17978,Rb5GeP3,0.4614
mp-17979,BaAl2(SiO4)2,4.7813
mp-17986,TiTl2O3,2.0959000000000003
mp-18005,NaYTiO4,2.3749
mp-18010,Ta2Pd3Se8,0.6518000000000002
mp-18042,SrTb2O4,3.6622
mp-20605,PbC2(SN)2,2.6512
mp-20606,Tb3In5S12,1.3402000000000005
mp-22083,Tb7O12,0.0141
mp-22098,CePO4,0.09769999999999968
mp-22126,U2S3,0.0032999999999994145
mp-22142,SiSe2,2.1693
mp-22145,Sm3(Ge2Ru)2,0.0032000000000005357
mp-22163,NaSn2(PO4)3,2.9914
mp-22192,Si3Ru2,0.5510999999999999
mp-22212,NaSbO3,1.2740000000000005
mp-23940,NaHO,2.8228
mp-23949,RbCaH3,3.2736
mp-23957,SrH2I2O7,3.5297
mp-23958,YH12(ClO2)3,5.3678
mp-23969,ZnH2SeO5,2.7049000000000003
mp-23970,NdP2H9O10,5.2907
mp-23975,NiH12C2(SN3)2,1.4359