task_id,pretty_formula,band_gap
mp-1125186,U6Fe16Si7,0.015599999999999168
mp-1178465,CsAsO3,2.2278
mp-1187189,TaAgO3,1.7257000000000002
mp-1206667,PrNiBi,0.3346999999999998
mp-1207080,TbHSe,1.5507999999999995
mp-1238870,TiCrAgS4,0.2854000000000001
mp-776216,AlCoO3,0.7975000000000003
mp-961712,TaTlPt,1.0639000000000003
mp-1005666,Sc3Al3C2O5,0.4127000000000001
mp-1014910,CrN2,0.15909999999999996
mp-1019898,LaPO4,4.6606000000000005
mp-1020622,SrZrO3,3.1654
mp-1020623,ZnSiO3,3.5902
mp-1020631,ZnGeO3,1.3775
mp-1020633,RbMgBO3,4.3738
mp-1030319,Te2Mo,0.5861999999999998
mp-1030325,Te6Mo3WSe2,0.008199999999999985
mp-1030327,Te6Mo3WSe2,0.2524999999999995
mp-1030331,Te8Mo3W,0.5270000000000001
mp-1030333,Te6Mo3WS2,0.011800000000000031
mp-1030335,Te4MoW,0.5418000000000003
mp-1030337,Te6Mo3WS2,0.009300000000000086
mp-1030354,Te4Mo3WS4,0.33930000000000016
mp-1030373,Te6Mo3WS2,0.01670000000000016
mp-1030375,Te3MoWSe,0.3362999999999996
mp-1030393,TeMoSe,0.014700000000000381
mp-1030404,Te4Mo3W(SeS)2,0.10760000000000014
mp-1030408,Te4Mo3WSe4,0.19730000000000025
mp-1030419,Te3MoWS,0.00550000000000006
mp-1030448,Te6MoW3Se2,0.10460000000000004
mp-1030449,Te4Mo3WSe4,0.053699999999999186
mp-1030453,Te6Mo3WSe2,0.00790000000000024
mp-1030454,Te4MoW3Se4,0.08549999999999969
mp-1030459,Te2Mo2SeS,0.025299999999999656
mp-1030465,MoW3(Se3S)2,0.9203
mp-1030524,MoW(SeS)2,0.6101999999999999
mp-1030526,TeMoWSe2S,0.2256
mp-1030534,Te2MoWSeS,0.005199999999999871
mp-1030536,MoW3(SeS)4,0.7535000000000003
mp-1030573,Te4Mo3WSe4,0.14349999999999996
mp-1030577,Te6Mo3WSe2,0.27399999999999997
mp-1030613,Te2MoWSe2,0.15009999999999968
mp-1030614,Te6Mo3WSe2,0.3473000000000006
mp-1030615,Te4Mo3WSe4,0.1092000000000004
mp-1030616,Te4Mo3WSe4,0.06709999999999994
mp-600273,V2Cu3O8,0.32920000000000016
mp-601226,BaH2(CO2)2,4.1704
mp-601286,TbCuPbSe3,1.2379000000000009
mp-601401,KCSN,3.8733
mp-601574,VH4(CO3)2,2.994
mp-601830,BaTe2Mo2(HO6)2,3.0841000000000003
mp-625281,U(HO2)2,1.577
mp-625397,Nd(HO)3,3.7396
mp-625402,Sm(HO)3,3.7105
mp-625447,Pr(HO)3,3.7453
mp-625472,Tm(HO)3,3.6114
mp-625677,Y(HO)3,3.9093
mp-625733,La(HO)3,4.02
mp-625950,Te(HO)6,1.5729
mp-626289,H3NO4,3.7239
mp-626357,FeHO2,2.1146
mp-626365,FeHO2,2.0151
mp-626423,FeHO2,1.3842999999999996
mp-626449,PH3O4,5.6514
mp-626450,PH3O4,5.6683
mp-626464,PH3O4,5.642200000000001
mp-626504,Al(HO)3,4.7475999999999985
mp-626550,Ti3H2O7,2.8727
mp-626558,Ti3H2O7,2.6827
mp-626582,Mo(HO2)2,2.5418
mp-626586,Mo(HO2)2,2.2047
mp-626605,Al(HO)3,4.7793
mp-626607,V6H4O13,0.6082999999999998
mp-626621,V6H4O13,0.6696
mp-626726,BaH4O3,3.9287
mp-626735,BaH4O3,3.9758
mp-626778,NaHO,3.3035
mp-626794,Ni(HO)2,1.8011
mp-626869,H2WO5,1.9137
mp-627401,CdI2,2.3569
mp-627557,CdI2,2.3549
mp-627601,AgSbS2,1.5593
mp-627684,VHO3,0.3165000000000001
mp-655631,FeBiO3,1.7629
mp-657749,MnAgO4,0.3114
mp-662499,RbMgCl3,4.6099
mp-662556,Re(TeBr2)2,1.9379
mp-696275,SnH8(NCl3)2,2.5482
mp-696590,TiH8(NF3)2,4.7167
mp-696597,B5H9,5.7128
mp-696969,Sr(H2N)2,2.3795
mp-697085,H2O,5.2928
mp-697666,H6S(NO2)2,5.2248
mp-697721,H8C2NCl,5.1211
mp-697761,MnPO4,1.15
mp-697789,LiCrP2O7,1.117
mp-697878,KCo2H3(SeO5)2,0.7221000000000001
mp-698060,PHOF2,7.0025
mp-698068,SnPH5NO4F,2.8792
mp-698084,H4NClO4,5.2585
mp-698132,Al2Si2H4O9,4.9007000000000005
mp-698210,RbCoH24(C7N4)2,4.2736
mp-698357,SnH8(CI)4,3.0236
mp-698397,SnH24C6N2(OF3)2,4.7044
mp-744832,V3HPb5O13,2.8578
mp-745104,Gd2(MoO4)3,3.234
mp-745150,VZnHPbO5,2.9905
mp-745154,MnZn2Si(HO3)2,1.0539
mp-745158,NiH10C2(N2O3)2,4.3575
mp-757100,LiCoS2,0.6835999999999998
mp-757450,Sc2Ge2O7,3.6855
mp-757594,Os(OF2)2,1.9012
mp-757793,Li2Nb(PO4)2,0.3167
mp-757883,LiSiBiO4,2.9488000000000003
mp-757964,LiSn2P5O16,2.2785
mp-762903,LiMnF3,3.1386000000000003
mp-763012,Li2MnF4,3.744
mp-763056,FeOF,0.9937
mp-763059,LiV(CO3)2,1.8881
mp-763068,Fe4OF7,1.5192
mp-763070,Fe4O3F5,0.29879999999999995
mp-763083,Li2MnF6,2.6308
mp-763092,Li2Mn3F8,2.8559
mp-763099,Li2VO2F,1.1729999999999996
mp-763105,FeOF,1.6587
mp-763108,FeOF,1.382
mp-763137,VOF,0.8776000000000002
mp-763145,Co2OF3,0.6714
mp-763149,LiMnF3,3.293
mp-763170,FeOF,0.8373999999999997
mp-763174,Li2VO2F,1.7722000000000002
mp-763175,Li2VO2F,1.7652
mp-765183,FeOF,1.9539
mp-765215,VF4,2.1934
mp-765216,VF4,1.5907000000000002
mp-765239,VF4,1.8642
mp-765257,Li6V2O5F2,1.9696
mp-765258,Li4MnF8,1.0362
mp-765259,Li4VF8,2.1118
mp-765265,Ti2Mn(PO4)3,0.15549999999999994
mp-765321,Li2VF5,2.3259
mp-765358,Li3VOF5,2.7786
mp-765361,LiV2O3F,1.5082
mp-765363,Li2VF4,1.3747
mp-768060,VOF,0.5768
mp-768092,LiVSO4F3,1.5144000000000002
mp-768093,VSO4F3,0.9283
mp-768097,V3H4NO8,2.1017
mp-768103,NaVPCO7,1.9201
mp-768160,Li2BiPCO7,3.6529
mp-768175,Dy2SO2,2.8613000000000004
mp-768207,Li2SbPCO7,3.2196
mp-768208,Li3SbS4,1.4459
mp-768227,DyNbO4,3.2584000000000004
mp-768237,Gd2HfO5,3.1575000000000006
mp-768243,Tm2TiO5,3.1694
mp-768292,Li2BiBO4,2.3079
mp-768296,Ti3Bi2(PO4)6,2.3485
mp-768303,DyNbO4,3.9158
mp-768305,Sr2HfO4,3.6822
mp-768311,Cs3NO4,3.0787999999999998
mp-768315,Mg(IO3)2,3.3254
mp-768342,SrNb2O4,1.1539
mp-768348,Sm(ClO4)3,5.6722
mp-768358,ScInO3,2.1968
mp-768411,Dy2SiO5,4.163
mp-771279,Li4TiCrO6,1.1997999999999998
mp-771295,LiMnBO3,2.9162
mp-771299,Co2(SO4)3,0.5473
mp-771300,Li24Ti7Cr5O36,1.2200000000000002
mp-774134,Li2CoO2,0.8820000000000001
mp-774306,LiCrPO5,0.6720000000000002
mp-774314,Ti3MnV2(PO4)6,0.7793999999999999
mp-774326,Ni3OF5,0.6995999999999999
mp-774354,LiMn2F5,3.1486
mp-774355,Li3Co2(SiO4)2,0.5406999999999997
mp-774371,Li4Mn3F10,3.4539
mp-774390,Mn3SbO8,0.8637999999999999
mp-774404,LiVP3HO10,2.1452
mp-774407,Hg2W2O7,2.1528
mp-778079,BaYF5,6.4487000000000005
mp-778114,Sm2Ge2O7,2.5577
mp-778152,Sc2Pt2O7,1.8009000000000004
mp-778259,PrHfO4,0.1934
mp-778294,Li2VF4,2.7356000000000003
mp-778300,LiV2OF5,0.7904999999999998
mp-778325,Li2TiV3O8,1.2078000000000002
mp-778326,Ti3FeNi2(PO4)6,0.6998000000000002
mp-778348,Ta2CrNO5,1.4420000000000002
mp-778349,VFeP2(O4F)2,1.2959
mp-778352,LiFeF4,3.0296
mp-778395,LiCrPO5,0.8471
mp-778417,Fe6O5F7,0.8514999999999999
mp-778473,Gd3SbO7,2.5259
mp-778503,Ti3Fe2Sb(PO4)6,0.02890000000000015
mp-778506,Li2VF5,2.8520000000000003
mp-778509,LiVF3,2.6116
mp-778513,LiFeF4,3.9826
mp-778532,Li2FeF4,2.565
mp-849419,Fe10O9F11,0.41890000000000027
mp-849453,Fe10O9F11,0.7869999999999999
mp-849460,Mn2OF3,0.47200000000000003
mp-849475,VO2F,1.7911
mp-849511,VO2,0.5491000000000001
mp-849530,Li2MnVP2(HO5)2,1.0425
mp-849533,TiO2,2.7647
mp-849535,CrPO4F,0.04720000000000002
mp-849537,V6O11,0.4496000000000002
mp-849541,Li2V2F7,1.2155
mp-849558,Cr4OF11,0.8311999999999999
mp-601881,CaAlH5,2.9360000000000004
mp-603267,Rb2Cr4Cu(HO4)4,0.7878
mp-603567,ZnCoPHO5,2.8374
mp-603575,KFe3H6(SO7)2,0.39319999999999977
mp-603613,VH10SNO9,2.9331
mp-603719,AlPO4,2.9174999999999995
mp-603725,V2CoH4C4(NO3)2,2.1384
mp-603907,MgSiO3,5.0422
mp-603959,SrCrO4,2.8393
mp-604229,ZnH3CNO3,3.6736
mp-604295,HgH16(Br3N2)2,2.0737
mp-604304,HgH16(Br3N2)2,1.9892
mp-627867,Si4H2O9,2.0370000000000004
mp-627993,LiV2O5,0.2925999999999997
mp-643385,SrHIO,3.7424
mp-643392,Ca(HO)2,4.284999999999998
mp-643397,H8Pd(NCl3)2,1.0972
mp-643460,SnHg2(SBr)2,1.9584
mp-643561,VH6(OF)3,1.6463
mp-643701,TlP(HO2)2,3.9882
mp-643749,KCaF3,6.5984
mp-643770,Rb2MgH4,3.8434
mp-643791,RbP(HO2)2,5.0879
mp-643797,K10Hf3Mo12PbO48,0.1815
mp-643905,Sr(H2N)2,2.342
mp-644028,Fe2CuAs2(HO5)2,0.7587000000000002
mp-644103,CaSiSnO5,3.1945
mp-644225,Sr2MgH6,2.7286
mp-644244,Rb2MgH4,3.2777
mp-644302,NaHSeO4,3.4354
mp-644324,K2FeH4(SO5)2,4.3219
mp-644332,KMnF3,2.6892
mp-644431,Cd2P3Cl,1.2107
mp-644445,Rb4CdCl6,2.5953
mp-644486,KAlH4,4.8048
mp-644494,Rb2H4Pd,3.0255
mp-644497,BaTiO3,0.3567
mp-644594,K2MgMo2(H2O5)2,3.5278
mp-644751,BN,5.7747
mp-644827,TePCl9,1.7973
mp-644879,MgSiO3,4.5951
mp-645135,Tb2MnNiO6,1.6879
mp-645291,As3Pb5ClO12,3.0286
mp-695325,Ti5ZnBi2(Pb2O9)2,1.9482
mp-695396,Na3SrTiNb3O12,1.6565
mp-695439,RbTiPO5,2.3171000000000004
mp-695476,NaSr8LaTi10O30,1.8022
mp-695514,NaSr2NdTi4O12,1.8599
mp-695698,Ca2TiAlSi2O9F,3.0731
mp-695780,Li2MnP2O7,4.2766
mp-695793,ZnAs4(HO2)8,0.12529999999999994
mp-695805,Li2FeP2O7,4.2488
mp-695816,LiFeP2O7,2.4343
mp-695829,RbHSeO4,3.6169
mp-695866,BeH8(NF2)2,6.2707
mp-695927,Ca2AlH10ClO8,3.3211
mp-695948,PH4SNO2,4.1913
mp-698449,PH12C2N6O3F,4.9350000000000005
mp-698479,RbTeHOF4,4.8825
mp-698480,Sb4H2SO10,3.3641000000000005
mp-745166,Sr2Fe2H2OF10,3.5417
mp-753663,BaYBr5,3.6748
mp-753673,BiOF,2.3179
mp-753691,Y2Bi2O7,0.12360000000000015
mp-753692,Ho2Ge2O7,3.0028999999999995
mp-753699,Bi4O5F2,3.0918
mp-753709,BaCaI4,2.8307
mp-753711,Ca3(PO4)2,4.5074
mp-753712,YIO,3.4111
mp-753714,Li3CuS2,2.4626
mp-753727,Y3I7O,2.5815
mp-753731,Ba2CaI6,3.6354
mp-753746,Rb2O,0.4531
mp-753755,Bi3O4F,2.1425
mp-753793,Ba2YF7,6.8971
mp-753794,Hf2P2O9,4.8809000000000005
mp-753795,Li3BiO3,2.9917
mp-753800,NbOF3,3.6646
mp-753806,BSbO3,3.762000000000001
mp-753842,YZr5O11,0.6757
mp-753858,TiOF2,3.8974
mp-753879,Pr2S2O,2.3612
mp-753891,ZrTiO4,2.8427
mp-753903,Bi2B2O7,0.5085999999999999
mp-753911,GdAsO4,3.0144999999999995
mp-753917,Y2HfO5,4.5615000000000006
mp-753939,LiSnPO4,3.4982999999999995
mp-753947,LuHO2,4.8555
mp-753968,Li2WS4,1.6913
mp-753976,GdAsO4,2.7232
mp-753979,Sn2P2O7,2.9406
mp-754031,YBrO,3.6348
mp-754043,NaLuO2,4.1867
mp-754044,Ho2TiO5,2.9405
mp-754047,Rb3SbO3,2.3795
mp-754079,GdAsO4,3.0349000000000004
mp-754110,SmAgO2,2.5214000000000003
mp-754114,SrSc2O4,3.504
mp-754118,Sr(AsO3)2,3.2716
mp-754144,BaYI5,2.7161
mp-754146,Rb3YO3,2.0568
mp-754149,GdOF,3.2028
mp-757996,LiTi(PO3)4,0.02300000000000013
mp-761452,Li2Fe(Si2O5)3,0.2641
mp-761456,Li2FeP2O7,4.164999999999999
mp-761457,Li4Fe(PO3)6,4.220700000000001
mp-761460,Li2FeP2O7,3.8886
mp-761462,LiFePO4,3.3557
mp-761463,Li2FeP2O7,3.5556
mp-761469,LiFePO4,3.4253000000000005
mp-761473,V2Bi4O11,2.326
mp-761474,LiFePO4,3.5233
mp-761476,LiFePO4,3.6337
mp-761477,CoH2SeO4,2.6596
mp-761478,LiFePO4,3.4132
mp-761479,CoH8(IO5)2,2.9021
mp-761480,LiFePO4,3.157
mp-761483,Li3Fe(PO4)2,2.4045
mp-761484,LiFePO4,3.523
mp-761485,Li2Mn(SiO3)2,2.6074
mp-761496,LiNi4(PO4)3,3.1528
mp-761514,Li3Fe(PO4)2,1.925
mp-761544,LiNiPO4,3.3324
mp-761549,LiMnPO4,3.3281000000000005
mp-761553,Li2Ni(PO3)4,3.5437000000000003
mp-761559,LiFeSiO4,2.6029
mp-761560,LiMnPO4,3.4921
mp-761561,LiCr(SiO3)2,3.1566
mp-761567,Li2MnP2O7,3.7511
mp-761569,Li2MnP2O7,2.5407
mp-763176,Mn3(O2F)2,0.06800000000000006
mp-763177,Li2VO2F,1.6982
mp-764500,Li8Fe(O2F)2,3.0276
mp-764504,Li3Fe4(BO3)4,1.2874000000000003
mp-764505,LiFe2(BO3)2,1.8924
mp-764510,FeOF,0.5734000000000004
mp-764521,VOF,1.0949
mp-764526,Mn6OF11,0.2988000000000001
mp-764527,Li8Fe(O2F)2,2.9833
mp-764549,V3(O2F)2,0.993
mp-764556,Li5Fe7O3F13,0.6779000000000002
mp-764558,VOF2,1.5966999999999998
mp-764563,Na3MnO3,0.6771000000000003
mp-765368,LiVF5,2.073
mp-767863,Li3VPCO7,3.2087
mp-767864,Li3VPCO7,3.1653
mp-767865,Li3VPCO7,3.2070000000000003
mp-767866,Li3NiPCO7,3.2615
mp-767867,Li3NiPCO7,3.3762000000000003
mp-767870,Li3NiPCO7,3.3582
mp-767871,Li3MnPCO7,4.0612
mp-767875,Li3FePCO7,4.2436
mp-767876,Li3MnPCO7,4.1411
mp-767878,Li3FePCO7,4.2364
mp-767884,Li3MnPCO7,4.1018
mp-767885,Li3FePCO7,4.2013
mp-767886,Li3MnPCO7,4.0117
mp-767887,V(SiO3)2,1.496
mp-767890,Li3CrPCO7,2.6531
mp-767892,Li3CrPCO7,2.7651
mp-767893,Li3CrPCO7,2.5573
mp-767896,Li2SiNiO4,3.1114
mp-767898,Li3CrPCO7,2.716
mp-767901,Li3CoPCO7,2.7427
mp-767902,Li3CoPCO7,2.8344
mp-767905,Li3CoPCO7,2.8741000000000003
mp-767916,Li2SiNiO4,3.5472
mp-767925,VPH5O7,1.8483
mp-768476,Li3VS4,1.3562
mp-768482,Bi2(SO4)3,3.8124
mp-771727,P4H3(WO8)2,2.4152
mp-771749,NiSn3(PO4)4,0.6127000000000002
mp-771750,Sr(IO3)2,3.739
mp-771771,Ta2PbO6,3.5547
mp-771790,V3NiO8,1.1928
mp-771798,WO3,1.3986
mp-771811,Mn3CoO8,1.2400000000000002
mp-771825,Er2TiO5,3.1680999999999995
mp-771826,BaTl2O4,0.0679000000000003
mp-771828,Dy2Zr2O7,4.0207
mp-771843,Mn3(PO4)2,2.8782000000000005
mp-774412,LiCr(PO3)3,3.3285
mp-775992,TiNi3Sb2(PO4)6,0.5878000000000001
mp-776000,Ti3Mn2Sb(PO4)6,0.0343
mp-776002,Ti3Nb2Cr(PO4)6,0.1064999999999996
mp-776004,Li4CoO4,1.2202000000000002
mp-776007,Ti3Mn2Sn(PO4)6,0.09860000000000024
mp-776008,TiFe2Ni3(PO4)6,0.007099999999999884
mp-776023,CdSiO3,2.5256
mp-776024,CaZrO3,3.4707
mp-776025,Ti3NbCu2(PO4)6,0.011499999999999844
mp-776041,V2O5,2.08
mp-776046,TiFe3Sb2(PO4)6,1.1029999999999998
mp-776059,Ti3NbCo2(PO4)6,0.18800000000000014
mp-776068,LiVCrO4,1.3665000000000005
mp-776074,CaGeO3,3.2925
mp-776076,BaSiO3,4.6051
mp-776086,CaGeO3,3.3911
mp-776092,Li3V2F9,2.3215000000000003
mp-776108,LiNbO3,2.7432
mp-776111,Li8Fe7(PO4)8,0.024399999999999974
mp-776125,Ti3Cu2Sn(PO4)6,0.5726000000000004
mp-776139,LiVF5,1.8659999999999999
mp-778534,LiCrPO5,1.1485
mp-778547,Li2MnF4,3.9058
mp-778550,Li2MnFe(BO3)2,2.7056000000000004
mp-780872,LiMnSiO4,0.9821
mp-780878,LiMn(PO3)3,4.0608
mp-780880,Rb2CoO3,0.4884
mp-780883,Mn3(OF2)2,0.1108
mp-780884,LiMnPO4,3.3834000000000004
mp-780903,LiFePH2O5,3.3321
mp-780904,Cr4OF11,0.9155
mp-780907,Mn2OF3,0.3097000000000001
mp-780909,Li2Fe3F8,2.9172
mp-780914,Mn2OF3,0.0112000000000001
mp-780915,V4OF11,0.9634
mp-780918,Li2MnSiO4,2.9647
mp-780924,LiCo2OF3,1.7089
mp-780927,Li2VP2HO8,2.3775
mp-780977,Li4MnFe3(BO3)4,3.1115000000000004
mp-780978,Fe4O3F5,1.2249
mp-781011,V3OF11,1.8989
mp-849586,V4O7F5,0.6340999999999999
mp-849598,CoO2,1.2606
mp-604717,SiO2,5.1678
mp-604725,RbMgP(H6O5)2,4.7948
mp-605239,KCa4Si8H16O28F,0.1693
mp-605340,LaFeO3,1.7426000000000004
mp-605344,ZnH4SeO6,2.7471
mp-605406,RbU2H5C4O15,2.1541
mp-605486,ScTl(MoO4)2,3.6563
mp-605646,RbBa2N15,3.8238
mp-605771,TlIn(MoO4)2,3.634700000000001
mp-605821,Nd3SeBrN2,1.2121999999999995
mp-605863,AgSbPbS3,0.5549
mp-606901,Sr2CoSe2(ClO3)2,2.8927
mp-606912,S4N5Cl,1.8899
mp-645346,K3Cr(CN)6,1.8504
mp-645364,Sr(PN2)2,4.264099999999999
mp-645541,ZnCoTeBr2O3,2.6265
mp-645568,TlCr(MoO4)2,2.7802
mp-645740,SnSO4,3.5219
mp-645743,VAgTeO5,2.6045
mp-645774,SnSO4,4.068300000000002
mp-645796,TlFe(MoO4)2,2.5956
mp-645929,Ni3TeMo2O11,2.7541
mp-645935,Ni3Mo2SeO11,2.5396
mp-645979,RbCrF5,1.6165
mp-646007,Cs2Tb6Te7N2,0.7338
mp-646397,Sm2(MoO4)3,3.2356000000000003
mp-646633,V2Ni(PO5)2,1.7194000000000005
mp-647149,Ni7Te6(ClO9)2,2.9533
mp-647218,Re2P2O11,0.597
mp-647285,NaMg2V3O10,2.8158
mp-647343,PBr7,1.2227
mp-647727,Re2N2ClF9,2.0294
mp-647822,Pd2S9N4,1.3486999999999998
mp-648163,ReC5ClO5,2.577
mp-648164,Mn2Hg(CO)10,2.8110000000000004
mp-698605,CaGaBiB2O7,1.2817000000000005
mp-698616,Rb3FeF3,0.7186000000000001
mp-698668,Nb3ZnFe3(O6F)2,1.7278
mp-698669,Nd2(MoO4)3,3.5548
mp-698685,V2Bi4O11,2.3001
mp-698686,Na3CaFe4(SiO3)8,0.029700000000000063
mp-698690,NaCaGaSi2O7,3.1211
mp-698696,Ta2W2O11,2.2479
mp-699151,Sr6Mg7H26,2.9736
mp-699248,Sr2B5H2O11,0.9298
mp-699257,CaAl2Si2(H2O5)2,4.3611
mp-699346,LiCo2(PO3)5,3.0534
mp-699370,Nb2CoO6,1.2889999999999997
mp-699390,Pr4Si4N7ClO3,3.0945
mp-699437,KP(HO2)2,4.786899999999998
mp-699485,AlH12(NO5)3,3.3708
mp-699570,VTe4Cl4O,0.7834000000000003
mp-699660,KHo2Cu(MoO4)4,1.1534999999999995
mp-703308,CsGaP3HO10,4.900499999999999
mp-703312,RbPH4O5,5.1997
mp-703376,UP3H7O8,2.3075
mp-703393,PH8SN3O,3.4468
mp-703468,Na3SiH5O6,3.8851
mp-754162,LiGdO2,3.0626
mp-754165,ScGaO3,2.6997
mp-754184,ErAlO3,3.5517000000000003
mp-754199,BaSrI4,2.8453
mp-754204,LiGdO2,3.1305
mp-754211,SrLa2O4,3.788
mp-754217,SmIO,3.5519
mp-754224,BaSr2I6,3.764
mp-754236,Y2GeO5,3.7067
mp-754250,NaLuO2,4.0962
mp-754269,Nd3SbO7,2.7436000000000003
mp-754297,TiPHO5,2.6525000000000003
mp-754304,BaYI5,2.7805
mp-754335,Ga3NO3,0.8802999999999999
mp-754345,LiTaO3,2.3884
mp-754349,GdOF,3.1398
mp-754353,Zr3N4,0.9844
mp-754355,Tm(HO)3,4.1716
mp-754377,K4TiO4,3.1646
mp-754408,Ba2SrI6,3.0347
mp-754410,CaTm2O4,3.8132
mp-754414,SrSm2O4,3.5245999999999995
mp-754415,Tb3NbO7,2.5783
mp-754459,BCl(OF2)2,1.7619999999999998
mp-754462,SbTe2F6,0.9942999999999996
mp-754468,NaCuO2,0.5377999999999998
mp-754495,NbNO,1.6542
mp-754505,SrTaNO2,0.8129
mp-754531,Al2O3,4.369999999999999
mp-754572,BaCa2I6,3.4989999999999997
mp-754625,SrTaNO2,1.0762000000000005
mp-761587,V5CoO12,0.04479999999999995
mp-761603,LiV(SiO3)2,2.0453
mp-761606,LiMnPO5,0.6677000000000002
mp-761610,LiMnPO5,0.20510000000000028
mp-761619,LiMn(SiO3)2,1.1997999999999998
mp-761631,Ti2Fe4O9,0.9252000000000002
mp-761635,Li2CoP2O7,2.8826000000000005
mp-761638,Li2CoP2O7,2.3923000000000005
mp-761653,Li2MnSi3O8,2.7364
mp-761654,TiCo(PO4)2,1.8653
mp-761656,Li4Co(PO4)2,2.8352
mp-761657,Li2CrSiO4,1.1657000000000002
mp-761658,Li2CoP2O7,2.8650999999999995
mp-761660,Li2CoP2O7,2.9702
mp-761664,Li2CoP2O7,2.9887
mp-761665,Li2CoP2O7,2.6476
mp-761670,LiCoPO4,2.7229
mp-761677,LiCoPO4,3.2239
mp-761680,Li2CrSi4O11,0.9435
mp-761708,CrHSe3O8,2.3228
mp-761732,LiCoPO4,2.7269
mp-764578,MnOF,0.004799999999999915
mp-764580,LiFe2OF3,2.8213
mp-764595,Na2V2O5,1.2664
mp-764599,VO2F,0.7834
mp-764603,Li2MnV(P2O7)2,0.1770999999999998
mp-764608,Mn6O7F5,0.1501999999999999
mp-764616,LiFe2OF3,2.0239000000000003
mp-764633,V2OF5,1.5376
mp-764634,Li2CoSiO4,2.4566
mp-764641,Li2CoSiO4,2.9181
mp-764645,Li3MnF7,1.4076999999999995
mp-764675,Li4Fe7(OF7)2,3.0404
mp-764680,V3OF11,2.1733
mp-767937,Na5Fe2P2(CO7)2,1.2073999999999998
mp-767938,LiFeSiO4,2.8707000000000003
mp-767939,Li2V2F7,0.7864000000000001
mp-767947,LiCo2(PO4)2,0.4981
mp-767951,V11NiO18,0.6177000000000001
mp-767952,NaMnPCO7,0.9159
mp-768486,Sb2(SO4)3,3.6732
mp-768500,Sb2(SO4)3,3.1011999999999995
mp-768503,Lu(PO3)3,5.7410999999999985
mp-768507,Cu2(SO4)3,0.33430000000000004
mp-768518,LaAlO3,4.4362
mp-768537,Cs3TlO3,1.5384
mp-768570,Sr2CaI6,3.3417000000000003
mp-768572,YAl3O6,4.122
mp-768604,SrLaCl5,3.4167000000000005
mp-768611,Ba3(YI6)2,2.3958
mp-768665,LiBiB2O5,1.8355
mp-768731,Li2BiBO4,2.1135
mp-768738,Li3Bi(BO3)2,2.9149
mp-768745,HfP2O7,5.4604
mp-768788,Li3Bi(BO3)2,3.9539
mp-768794,LiBiB2O5,3.3930000000000002
mp-768797,Li3Bi(BO3)2,3.2589
mp-768809,Li3Bi(BO3)2,3.2286
mp-768810,Sr4Br6O,3.4836
mp-768814,Y2GeO5,3.3976
mp-768827,BaSrI4,3.171
mp-768865,Lu2GeO5,3.42
mp-768873,Y2GeO5,3.7621
mp-768875,Li6B4O9,4.4245
mp-768909,Sr(IO3)2,3.3968
mp-768910,Bi2B2O7,0.2166999999999999
mp-768961,YB5O9,5.2587
mp-768963,SrLaCl5,3.3475
mp-768982,Li7NbS6,2.1263
mp-768989,Bi2B2O7,0.9355
mp-769009,Ba2YCl7,4.1943
mp-771872,V2NiO6,2.6910000000000003
mp-771898,Cs2SO4,4.5791
mp-771899,Ni4P2O9,3.2240999999999995
mp-771906,Li2AlCoO4,1.5688
mp-771908,LiFePO4F,2.4041
mp-771911,Ni3(PO4)2,3.3565
mp-771931,V4CrCuO12,0.6704999999999999
mp-771956,Tb2Zr2O7,4.0184
mp-771957,Ta2PbO6,2.6067
mp-771978,Ga2HgO4,0.10379999999999967
mp-771995,LiFeO2,1.4355000000000002
mp-772013,V3Sb(PO4)6,0.9349
mp-772014,NbCo3(PO4)4,0.6510000000000002
mp-772025,TaIn3O7,0.9951999999999996
mp-772040,SbH(OF3)2,1.8319
mp-776173,Ti3Cu2Sb(PO4)6,0.03730000000000011
mp-776185,LiFeF3,0.01089999999999991
mp-776187,Li4Cr(WO4)3,2.2378
mp-776198,V5CrO12,1.1851000000000005
mp-776199,AgClO3,3.1131
mp-776201,Zr2N2O,0.9145
mp-776220,Hf2N2O,2.2156
mp-776239,Zr2N2O,1.5627999999999995
mp-776245,Zr2N2O,1.0257000000000005
mp-776250,Zr2N2O,0.8702999999999999
mp-776255,Li5SbS4,0.8237000000000001
mp-776271,Zr2N2O,1.7626000000000004
mp-776273,Zr2N2O,1.6695000000000002
mp-776283,Li4NbCo3O8,1.4030000000000002
mp-776293,Na4Sb2C4SO16,0.4731999999999998
mp-776325,Sc2H6(SeO4)3,4.3805
mp-776387,Ti2N2O,0.3630000000000004
mp-776435,LaTiNO2,1.1275000000000004
mp-776528,LiV6O7F5,0.9408999999999996
mp-776575,BaTm2O4,3.838
mp-781015,La2WO6,3.1375000000000006
mp-781048,Fe4O3F5,1.0832
mp-781049,V4OF11,1.4506
mp-781056,Li5FeO4,2.764
mp-781058,Fe3OF5,0.0008000000000001339
mp-781061,V3OF11,2.1551
mp-781069,Li2MnFe(BO3)2,3.0889
mp-781070,LiV2P4(HO8)2,0.9447
mp-781073,Li5CoO4,1.5192
mp-781134,V2OF5,1.5417
mp-781495,Na2Co2O3,1.1591
mp-781502,Li2Mn3(BO3)3,0.11210000000000007
mp-781503,VOF2,0.8146
mp-781504,Li2CrP2O7,2.5196
mp-781594,LiMn3(BO3)3,0.1809000000000001
mp-781603,Li4Mn3Fe(BO3)4,3.0329000000000006
mp-781604,VOF2,1.7276
mp-781607,LiMn3(BO3)3,0.4590000000000001
mp-781681,LiMn(PO3)4,1.0853
mp-781682,LiMn3(BO3)3,0.17310000000000006
mp-781694,LiMn2(BO3)2,0.017800000000000038
mp-781701,Fe10O9F11,1.0282000000000002
mp-607841,Tl(CO)2,3.3303
mp-608081,Rb3Pb4Au,0.15589999999999993
mp-608106,P4S3I2,1.7917999999999998
mp-608551,Ti(AlBr4)2,0.3412000000000001
mp-610430,BiBr3,2.515