task_id,pretty_formula,band_gap
mp-1017377,Mg6SiB,0.0
mp-1017387,RbMg6B,0.0
mp-1017418,CsMg6Si,0.0
mp-1017427,Mg6SiB,0.0
mp-1017459,LaMg6C,0.0
mp-1017491,CeMg6B,0.0
mp-1017497,LaMg6Si,0.0
mp-1019729,Eu3AlO5,0.0
mp-1021157,CsMg6Si,0.0
mp-1021159,BaLaMg6,0.0
mp-1021161,CsLaMg6,0.0
mp-1021162,CeMg6C,0.0
mp-1021305,LiMg6Mo,0.0
mp-1021311,KMg6Nb,0.0
mp-1021313,KHfMg6,0.0
mp-1021342,LiMg6C,0.0
mp-1021374,Mg6TiC,0.0
mp-1021389,KMg6Si,0.0
mp-1021449,Mg6VC,0.0
mp-1021747,RbMg6V,0.0
mp-1021779,Mg6VB,0.0
mp-1021905,SrMg6Ni,0.0
mp-1022026,BaMg6Ni,0.0
mp-1022051,Mg6CoC,0.0
mp-1022081,Mg6CoC,0.0
mp-1022089,Mg6CuSi,0.0
mp-1022107,BaMg6Cu,0.0
mp-1022109,KMg6Ni,0.0
mp-1022116,Mg6CuB,0.0
mp-1022119,Mg6CuC,0.0
mp-1022123,Mg6CuSi,0.0
mp-1022140,RbMg6Cu,0.0
mp-1022207,Mg6FeC,0.0
mp-2811,MoN,0.0
mp-2816,Nd2Tl,0.0
mp-2873,Ce(CrB3)2,0.0
mp-2877,Nd(CuSi)2,0.0
mp-2881,Tb(GeRh)2,0.0
mp-2893,Dy(SiRh)2,0.0
mp-2896,Pr(GeRh)2,0.0
mp-2903,UAl3Ni2,0.0
mp-2908,Al2ZnO4,3.8457000000000003
mp-2909,HoAlNi,0.0
mp-2914,LaSi3Ir,0.0
mp-2917,Dy(CuSi)2,0.0
mp-2918,YCuO2,2.6470000000000002
mp-2924,Ho(SiNi)2,0.0
mp-2939,BaTbO3,0.0
mp-2940,LuPO4,5.9556000000000004
mp-2949,Ca(NiGe)2,0.0
mp-2958,Dy(BC)2,0.0
mp-2965,Ce(MnSi)2,0.0
mp-3035,Ce(FeSi)2,0.0
mp-3037,UTeO,0.0
mp-3045,ErFe4B,0.0
mp-3053,DyAlNi,0.0
mp-3061,TbNiC2,0.0
mp-3065,Ho(FeGe)2,0.0
mp-3077,SmAlGe,0.0
mp-308,U3O8,0.0
mp-3141,ErInRh,0.0
mp-3147,Er(SiAu)2,0.0
mp-3148,Dy(SiPt)2,0.0
mp-3155,Sc3FeC4,0.0
mp-3197,TbAlPd,0.0
mp-3207,Sr(NiGe)2,0.0
mp-3208,ZrGeTe,0.0
mp-3210,Ca(CoP)2,0.0
mp-3217,USeO,0.0
mp-3218,Er(SiPd)2,0.0
mp-3732,Ti2CS,0.0
mp-3747,Ti3AlC2,0.0
mp-3759,MgGeO3,3.6483000000000003
mp-378,ErSi,0.0
mp-38,Pr,0.0
mp-3804,Sr(PRu)2,0.0
mp-3826,Ce(SiPd)2,0.0
mp-3833,Mg(AlSi)2,0.0
mp-3847,DyCoC2,0.0
mp-3854,Y(MnSi)2,0.0
mp-3861,Al(MoS2)4,0.0
mp-3871,Ti2SnC,0.0
mp-3882,Sm(SiRh)2,0.0
mp-5057,Nd(SiAu)2,0.0
mp-5058,FeAgS2,0.0
mp-5069,La(MnSi)2,0.0
mp-5083,Er(CuGe)2,0.0
mp-5105,La(SiRu)2,0.0
mp-5106,TbCoC2,0.0
mp-5109,Y(NiGe)2,0.0
mp-511,PrGe,0.0
mp-5112,Pr(CoSi)2,0.0
mp-5146,Zn(RhO2)2,0.9323999999999999
mp-5154,HoNiC2,0.0
mp-5160,AgBF5,0.0
mp-5161,Sm(GeRh)2,0.0
mp-5167,Sm(NiGe)2,0.0
mp-5219,Ho(SiOs)2,0.0
mp-5239,NdSiRu,0.0
mp-5244,Ti2SbP,0.0
mp-5260,Ho(GeRu)2,0.0
mp-5268,U2SbN2,0.0
mp-5284,U(CrSi)2,0.0
mp-5292,Ca(SiNi)2,0.0
mp-530,Nd4Sb3,0.0
mp-5311,UBN,0.0
mp-5556,U(SiRh)2,0.0
mp-5558,NaReO4,3.6151999999999997
mp-5561,Ho(CrSi)2,0.0
mp-5564,Pr(AgGe)2,0.0
mp-5610,Ca(AsRu)2,0.0
mp-5615,CaAgAs,0.019599999999999618
mp-5627,Pr(FeSi)2,0.0
mp-5628,K(RuO2)4,0.0
mp-5632,DyAsO4,3.6275000000000004
mp-5641,Tm(MnGe)6,0.0
mp-5643,Yb2FeS4,0.0
mp-5646,NdSnAu,0.0
mp-565,Sn2Rh,0.0
mp-5659,Ti3SiC2,0.0
mp-5666,Ho(MnGe)2,0.0
mp-567,La3S4,0.0
mp-5670,LiTi2O4,0.0
mp-5671,Sr(CoP)2,0.0
mp-568,TiSb2,0.0
mp-5682,Th(SiNi)2,0.0
mp-5683,U(MnSi)2,0.0
mp-5688,Er(FeSi)2,0.0
mp-569,NdCo5,0.0
mp-5699,K2CuF4,0.0
mp-5752,Tb(SiIr)2,0.0
mp-5765,Nd(BC)2,0.0
mp-5767,DyPO4,5.887
mp-578,GaAg2,0.0
mp-5786,U(SiOs)2,0.0
mp-5794,Zn(GaO2)2,2.3104999999999998
mp-5796,Ho(MnSi)2,0.0
mp-5819,Pr(NiGe)2,0.0
mp-5835,Ho(CoSi)2,0.0
mp-5836,ThSiO4,4.890000000000001
mp-5848,ErZrSb,0.0
mp-5852,Pr(SiOs)2,0.0
mp-5869,Ca2CuO3,0.0
mp-5898,La(SiNi)2,0.0
mp-5908,CeAsS,0.0
mp-5910,CaCuSb,0.0
mp-5919,SmTiGe,0.0
mp-601371,GdSi,0.0
mp-601400,GdCo9Si4,0.0
mp-604378,Tb4InIr,0.0
mp-632286,Sb,0.0
mp-632413,CoCl2,0.0
mp-632475,NbS2,0.0
mp-753148,Li2Cu7F16,0.0
mp-753179,Li2CuPO4,1.9750000000000005
mp-753199,Li3Cu2F8,0.0
mp-753246,Sn3(OF)2,0.0
mp-753354,Eu4O3F7,0.0
mp-753357,SrBi5O9,0.0
mp-753363,Li4Sb(TeO4)3,0.0
mp-753368,YbIO,0.0
mp-753388,Li2Cu2F5,0.0
mp-753403,LiCu2(CO3)2,0.0
mp-753416,LiCuBO3,0.0
mp-753437,La5Cu5O13,0.0
mp-753445,Sb4O5F2,2.9421999999999997
mp-753477,Li3BiS3,0.9889999999999999
mp-753486,BaCaI4,3.3933999999999997
mp-753493,CeU5O12,0.0
mp-753497,Li3TiS3,0.0
mp-753511,LiTiSiO4,0.0
mp-753517,SrBi5O9,0.0
mp-753520,Li3BiS3,2.2533999999999996
mp-753552,Cu4PtO5,0.0
mp-753564,Sn3(OF)2,0.0
mp-764351,LiMn2OF3,1.2006999999999999
mp-764359,CrOF,1.4245999999999999
mp-764368,Li2Mn3OF6,2.4173999999999998
mp-764385,Li4Fe3Cu3(SbO8)2,0.0
mp-764387,MnOF,0.0
mp-764389,Li3V2(O2F)2,0.0
mp-764395,Li4Mn3Cr2Sb3O16,0.07420000000000027
mp-764414,K2Li2NiO4,0.40630000000000005
mp-764423,Li2CrF4,1.9648999999999996
mp-764424,Li3V2(O2F)2,0.9366000000000001
mp-764427,Li3V2(O2F)2,0.9198999999999999
mp-764436,Mg5Fe19O32,0.0
mp-764440,Cr(PO3)4,0.05840000000000001
mp-764441,Li3V2(O2F)2,0.9480999999999999
mp-764443,Li4Mn3Fe3(WO8)2,0.0
mp-764450,MnOF,0.0
mp-767754,Na5Bi2P(CO4)4,0.0
mp-767756,V2Bi4O11,2.1572999999999998
mp-767765,Li34Sb8S7,0.0
mp-767774,Mn2Fe3Cu(PO4)6,0.0
mp-767776,P4WO12,2.9530999999999996
mp-767778,Li2V3Si3O10,1.9249999999999998
mp-767780,KV4O10,0.0
mp-767783,FeP2O7,0.0
mp-767804,Li3Mn4(PO4)6,0.0
mp-767806,VO2F,2.5328999999999997
mp-767820,Li4V8O13F3,0.9380999999999999
mp-767821,Na3(CoO2)4,0.0
mp-767823,Li3Fe2(PO5)2,0.0
mp-767827,Li3SiNiO5,0.9584000000000001
mp-767828,Li2Fe(BO3)2,0.0
mp-767836,Mn2CoO4,0.26039999999999974
mp-767847,Li6Ca3MnC6(O9F)2,4.701300000000001
mp-767854,Li3VPCO7,3.1748999999999996
mp-767856,Li5V12O32,0.0
mp-767859,Li12CrCo3P4(CO7)4,1.2044000000000001
mp-769272,LiCuPO4,0.0
mp-769285,Ho3ReO8,1.7168999999999999
mp-769290,LiCuPO4,0.20250000000000012
mp-772335,Mn5P6WO24,0.05830000000000002
mp-772341,Ti3MnCr(PO4)6,0.0
mp-772344,Li5Nb2Ni5O12,0.0
mp-772346,Tm2(WO4)3,3.9047000000000005
mp-772357,Na2VCSO7,2.8607999999999993
mp-772358,Li4Fe3Ni3(WO8)2,0.0
mp-772362,TiMn3(PO4)4,0.009399999999999853
mp-772372,Sm2WO6,3.5725000000000002
mp-772373,TiP6(WO8)3,0.0
mp-772374,Mn5Fe(PO4)6,0.0
mp-772382,Li2FeSi3O8,3.0408999999999997
mp-772383,Tl3Co3O8,0.0
mp-772385,LiCo8O9,0.0
mp-772386,CrNi5(PO4)6,0.0
mp-772387,SnP6(WO8)3,0.0
mp-772388,Li4Mn3Fe5O16,0.0
mp-772393,NbFe(PO4)2,0.09030000000000005
mp-772402,Li4Mn5Cr3O16,0.0
mp-772417,Li4V3Fe5O16,0.9964999999999997
mp-772423,Ni(SO4)2,0.02510000000000001
mp-772425,Li3V(SO4)3,0.0
mp-772435,Li3Al2FeO6,2.6607999999999996
mp-772442,Co(SO4)2,0.0
mp-772443,FeSn3(PO4)6,0.0
mp-775450,Na5Ni2P2(CO7)2,0.0
mp-776849,Li4V3Sn3(SbO8)2,0.9329000000000001
mp-780103,Fe4O5F3,0.0
mp-780105,Li3Mn4(BO3)4,0.0
mp-780106,FeNi(PO4)2,0.0
mp-780108,Co2O3F,0.0
mp-780111,Li2Mn3(BO3)3,0.0
mp-780116,Mn6O5F7,0.0
mp-780117,Li4CoO3F,1.3903999999999999
mp-780121,Fe4O5F3,0.0
mp-780130,Mn3Cu2Ni(PO4)6,0.0
mp-780131,Li7MnNi3(PO4)6,0.0
mp-780147,LiMnSiO4,0.9949000000000003
mp-780149,Li2Mn3(BO3)3,0.022199999999999998
mp-780179,Li7FeCo3(PO4)6,0.0
mp-780188,Li6Fe5O12,0.0
mp-780197,Li2Mn3(BO3)3,0.0
mp-780211,Fe6O11F,0.0
mp-971844,Tm6GaCo2,0.0
mp-972117,SrTeO3,3.6061000000000005
mp-972228,Zr3As2,0.0
mp-973924,Li(Mg4Al3)4,0.0
mp-973966,LiIn(IO3)4,3.0613000000000006
mp-974045,La11In9Ni4,0.0
mp-976190,K3TlAu5,0.0
mp-995217,H2C3,1.9448999999999999
mp-995230,Cs2Si(HO2)2,3.8831999999999995
mp-997000,AgHgO2,0.0
mp-3165,RbMnSb,0.0
mp-3166,Th(SiOs)2,0.0
mp-517,TaSi2,0.0
mp-5173,Ce(SiAu)2,0.0
mp-5178,V2CuS4,0.0
mp-5584,Ga(MoSe2)4,0.0
mp-5720,Ho(SiRu)2,0.0
mp-5729,YAgSn,0.0
mp-637600,Gd6CoBr10,0.01750000000000007
mp-637631,Tm15S22,0.0
mp-637680,K2Mo4O13,2.9414000000000002
mp-638100,CeTl2P2S7,0.0
mp-638206,P3CN4Cl7,3.7592999999999996
mp-638900,Si3O7,0.10310000000000041
mp-639900,K(GeSe2)2,0.0
mp-640054,Nd6In22Pt13,0.0
mp-640416,Rb,0.0
mp-641100,UTl2Cr2O10,1.9752999999999998
mp-641101,K34(Zn4In17)5,0.0
mp-641743,Yb11(Sm2Se11)2,0.0
mp-642234,NaEu(PO3)4,0.0
mp-642578,K2Mn2(SO4)3,0.22399999999999998
mp-642890,LaSe,0.0
mp-645302,Al14Co5Si2,0.0
mp-646565,NaCe4I7N2,0.0
mp-667326,K5InO4,2.0401000000000002
mp-676168,Ag8GeTe6,0.0
mp-676169,Hg3SeO6,0.0
mp-676213,P6Pb5O11,0.0
mp-676260,Ag9Te4Br3,0.0
mp-676264,YTh9O20,0.0
mp-676282,Mg(Mo3S4)2,0.0
mp-676309,Sr11Ru10O33,0.0
mp-676312,YbBiO3,0.35420000000000007
mp-676411,Sr9U9O34,0.0045999999999999375
mp-676450,Li2UBr6,0.0
mp-676500,Cr9In7S24,0.0
mp-676541,Na4Cr13Se23,0.0
mp-676555,Ag8GeTe6,0.0
mp-676564,NdTh9O20,0.0
mp-676617,Ba5(Bi2O3)7,0.0
mp-676628,K(V5S8)3,0.0
mp-676704,Yb10Ti6O27,0.0
mp-676854,Ta14(CuS8)3,0.0
mp-677027,NaCa9TaTi9O30,2.4406999999999996
mp-677108,Li7(Mo3S4)4,0.0
mp-677126,Ca2YbF7,0.0
mp-677127,YAl6Si18(N15O)2,0.0
mp-677325,Ba8Tl2Bi2Pb4O17,0.0
mp-677372,Ti10Bi(Pb3O10)3,0.0
mp-677385,Sr6La4Mg2Ru3O20,0.0
mp-677474,Na4Al3Ge3NO15,0.010000000000000009
mp-677597,Ta4AgS8,0.0
mp-680235,CsSbTe6(OF5)6,2.5475999999999996
mp-680302,Ca31Sn20,0.0
mp-680317,Cs2Bi8Se13,0.9106000000000001
mp-680327,K3Ta4F15,0.0
mp-680343,Ta21Te13,0.0
mp-680371,RbPuP2S7,0.0
mp-680389,La8Cu7O19,0.0
mp-680394,Ca3AlCd17,0.0
mp-680434,Na26Cd141,0.0
mp-680468,Tb6In23Pt12,0.0
mp-680682,K3Ga13,0.0
mp-680696,Nb3TlVCl11,0.0
mp-680712,Np3Se3O13,0.0
mp-685089,K57Se34,0.0
mp-685187,Yb29S30,0.0
mp-685251,Nd2(Mo3Se4)5,0.0
mp-685296,Sm5(Mo3Se4)12,0.0
mp-685315,CaAs3F15,0.9034000000000001
mp-685447,Pr5(Mo3Se4)12,0.0
mp-685526,Ca28(Yb5S16)3,0.0
mp-705636,Li3Mn10O20,0.0
mp-705699,Sn(WO3)18,0.0
mp-705729,Mn9(Cu3O10)2,0.0
mp-705742,Li13Mn21O48,0.0
mp-705778,Mn3(AgO2)4,0.49639999999999995
mp-705828,Li23Ni17O40,0.0
mp-705867,NaFe8F24,0.0
mp-705892,K2B10H9O,0.0
mp-705895,BaNb2Fe2(PO4)6,2.4457999999999998
mp-705903,Li10Mn23O48,0.0
mp-705961,Li5Mn12O24,0.0
mp-706245,Ca3La5Mn6(CuO12)2,0.0
mp-706341,Sr3La7Mn7(FeO10)3,0.0
mp-706469,Mn3(P2O7)2,0.0
mp-706492,Mn19Fe17O48,0.0
mp-706597,Al2FeO4,2.8188999999999993
mp-706601,ZnH16C4S4(N5O3)2,0.19230000000000003
mp-706830,Li7Mn11O24,0.0
mp-706869,La2ThTa(ClO2)3,4.145300000000001
mp-707208,H8C2SeS2(N2Cl)2,2.8516999999999997
mp-707317,ErP4HO12,5.554600000000001
mp-707412,H22C10O3,1.2407000000000001
mp-707413,CuH12N2(OF2)2,0.14439999999999997
mp-707477,AsH12C4I3,1.7631999999999999
mp-707517,RbUP2H8O11,0.09939999999999993
mp-707856,CaP3H16(NO4)3,0.0
mp-723248,Re5H4(CO)20,0.33899999999999975
mp-7245,P,0.0
mp-728,Li2Pd,0.0
mp-762319,Li4TiO4,3.8455999999999997
mp-762358,LaH9(SO6)2,4.455100000000001
mp-762369,Y9U5O28,0.033500000000000085
mp-762380,La9Mn10O30,0.0
mp-762423,Li5Fe5O12,0.0
mp-762451,Li5Ni9O16,0.0
mp-762462,Li6Ti3Cr(PO4)6,0.053600000000000314
mp-762479,Li3Fe3(PO4)4,1.7249999999999999
mp-762501,CaH8(NO5)2,3.4974999999999996
mp-762535,Li2Fe2(SiO3)3,2.9576000000000002
mp-762549,Li2Fe3(P2O7)2,3.9135999999999997
mp-762618,Li2Mn3(PO4)4,0.0
mp-769501,Na2NiPCO7,0.0
mp-769529,Na5Mn2P2(CO7)2,0.37739999999999996
mp-769537,Li14MgCo13O28,0.0
mp-769567,Li10Ti11Cr9O40,0.0
mp-770177,Li3Fe2P2(CO7)2,0.0
mp-770266,Li3Fe2P2(CO7)2,0.0
mp-770269,Li3Mn2P2(CO7)2,0.0
mp-770278,Li3Mn2P2(CO7)2,0.0
mp-770310,Li5Mn2P2(CO7)2,0.0
mp-770314,BaLaI5,2.6982999999999997
mp-770422,Li2MnPCO7,0.0
mp-770427,BaLaCl5,3.9549999999999996
mp-770503,Li4V2Si(PO6)2,1.8829000000000002
mp-770529,Li8Mn15CrO32,0.19600000000000017
mp-770565,TiCr(PO4)2,0.026200000000000223
mp-770573,Li4MnV(PO4)3,1.8432000000000002
mp-770640,Li4Mn3NbV2(PO4)6,0.47599999999999953
mp-771056,Li7Ti5Mn12O32,0.0
mp-771185,K2Ge2O5,2.9349999999999996
mp-771187,Li6Fe3Ni(PO4)6,0.0
mp-771244,Li4Co13O28,0.40379999999999994
mp-771347,Li11Ti4Fe9O32,0.0
mp-771366,LiMn2(PO4)2,0.0
mp-771372,Li2MnV(PO4)3,1.1383999999999999
mp-771499,LiFePCO7,0.0
mp-771544,LiMn2(PO4)2,0.0
mp-779375,Li32Mn3Cr13O48,0.9788999999999999
mp-779400,Li3V4(OF3)3,1.0575999999999999
mp-779413,BaP4O11,5.1476999999999995
mp-779454,Ti17(NO4)6,0.0
mp-779530,Cu(PO3)3,0.0
mp-779716,Cs4GeO4,2.7670999999999997
mp-779755,Li5Mn7Fe3O20,0.0
mp-779757,LiNi4(P2O7)3,0.0
mp-779766,Ni2(SO4)3,0.0
mp-779778,LiFePCO7,0.0
mp-779806,Li5V6O5F19,0.36569999999999997
mp-779816,Li2FeH8(SO6)2,3.8098999999999994
mp-779825,LiV2(OF)3,0.9138999999999999
mp-779834,Mn12O5F19,0.0
mp-779876,Li3MnV(PO4)3,0.0051000000000001044
mp-780003,La2P4O13,4.753699999999999
mp-780126,Li3MnSi2O7,0.9104999999999999
mp-780145,Li11Mn6O16,0.43579999999999997
mp-780165,Mn6O5F7,0.0
mp-780182,Li3Mn4(BO3)4,0.31940000000000013
mp-780233,LiTi2O4,0.0
mp-780335,Li3Mn4(BO3)4,0.0
mp-780361,La2P4O13,4.777299999999999
mp-780409,La4Al2O9,4.382099999999999
mp-780435,Li5Co2(PO4)3,2.7403999999999997
mp-780463,Ti11BeO20,0.0
mp-780481,Mn12O5F19,0.0
mp-780507,Mn12O5F19,0.0
mp-780511,Mn12O5F19,0.16710000000000003
mp-780523,LiFe(SO4)2,1.9546999999999999
mp-780582,Li2Mn3(BO3)3,0.0
mp-863767,Fe13(SnO10)2,0.9284999999999997
mp-863861,LiCoPO4,2.3316999999999997
mp-866762,LiNd9Mo16O35,0.9283000000000001
mp-867937,Ca2SiB5O14,0.24060000000000004
mp-867980,K4(S2O3)5,0.22750000000000004
mp-867999,Rb4Te2S8O15,0.0
mp-868151,Li7Ni2P7O24,0.0
mp-868306,Li2Ni3P9O28,0.0
mp-89,Cr,0.0
mp-892,ScPt,0.0
mp-899,InRh,0.0
mp-900,RhSe,0.0
mp-902,BaZn,0.0
mp-9040,Ca3AuN,0.0
mp-9061,KPdF3,0.0
mp-9164,ThSiAu,0.0
mp-92,Si,0.0
mp-980537,RbYbO3,0.0
mp-980646,TmSi3,0.0
mp-980941,Ti3N,0.0
mp-980945,Ti3Nb,0.0
mp-981132,TbGeO3,0.0
mp-981209,Ti3Ni,0.0
mp-981215,Zn3Co,0.0
mp-981250,SmPuO3,0.0
mp-981262,YbF,0.0
mp-981313,KTbO3,0.0
mp-981367,SrTlO3,0.0
mp-981376,ScSnO3,0.0
mp-981384,ScOs3,0.0
mp-981387,Hg3Bi,0.0
mp-994911,S,3.3265000000000002
mp-997523,K(WO3)3,0.0
mp-997535,Li9Mg(Ni6O13)2,0.42700000000000005
mp-997538,Li9Ni15O28,0.0
mp-997540,Li3Fe2Ni5O12,0.0
mp-997542,Li3Fe2(PO3)7,4.011699999999999
mp-998880,H9C8NO2,3.4078999999999997
mvc-4646,Ca(BiO2)2,1.8612000000000002
mvc-4859,Ca(AgO2)2,0.0
mvc-5220,BiO2,0.45689999999999986
mvc-5331,SbO2,1.3298999999999999
mvc-5424,Mg(SbO2)2,2.4587999999999997
mvc-5542,Zn(SbO2)2,2.2199999999999998
mvc-5860,BiO2,0.051000000000000156
mvc-5928,WO2,1.7347000000000001
mvc-6191,Zn(WO2)2,0.49239999999999995
mp-10015,SiOs,0.0
mp-10027,TiSe,0.0
mp-10059,ZrCo3B2,0.0
mp-1008918,CdN,0.0
mp-1008985,CoN,0.0
mp-1009491,RbTe,0.0
mp-1013541,Sr3SbAs,0.0
mp-1018067,CrFe3,0.0
mp-10190,Lu,0.044500000000000206
mp-1021419,CsMg6Ti,0.0
mp-1024972,FeNiGe,0.0
mp-1025011,FeNiSn,0.0
mp-1025124,FeCoSn,0.0
mp-1025282,Ti(VTe2)2,0.0
mp-1025393,TmSi2Ni,0.0
mp-1025526,LuAu3,0.0
mp-1038828,CaZn,0.0
mp-1039154,MgBi,0.0
mp-10534,Sm10S19,0.49650000000000016
mp-1059264,KGe,0.0
mp-1062206,NdCd2,0.0
mp-1063660,CsAl,0.0
mp-1073852,MgSi,0.0
mp-1076445,Sr8MnFe7O24,0.0
mp-1077262,TbCu5,0.0
mp-1079054,CaIrO3,0.0
mp-1079063,Na5LiN2,0.0
mp-1079457,Cu(BrN3)2,0.0
mp-1080192,Ti3N4,0.09830000000000005
mp-1080434,Sr2YCoO6,0.061100000000000154
mp-1094796,Mg5Cd,0.0
mp-1096826,As,0.0
mp-1097030,Li2O2,0.0
mp-1099105,BaCeMg14,0.0
mp-1099308,BaLiMg6,0.0
mp-1099832,La7SmMn7CuO24,0.0
mp-1100406,NbAsRu,0.0
mp-1100422,VTeRu,0.0
mp-1102850,SbPtS,0.0
mp-1103724,Bi2Pt3Se2,0.0
mp-1120823,V4Bi3,0.0
mp-12453,HoCuS2,1.6085000000000003
mp-12672,Yb2SO2,0.0
mp-12771,Se,0.0
mp-12832,Ba3CaRu2O9,0.0
mp-13164,Ti2Pd,0.0
mp-13940,Sr2TmReO6,0.0
mp-1728,LuRh2,0.0
mp-179,YZn,0.0
mp-1811,HgTe,0.0
mp-19067,Mg3V6(FeO6)4,2.2285999999999997
mp-19347,CaV3O7,0.0
mp-19541,Mg3Mn2(SiO4)3,0.0
mp-20325,Ti3InC,0.0
mp-20479,SrIn4Ni,0.0
mp-20529,Ba3NaIr2O9,0.0
mp-20864,VNi2Sn,0.0
mp-21661,YSi3Ni5,0.0
mp-21756,Sr(In4Rh)2,0.0
mp-22074,CeTaO4,0.0
mp-22293,PrZnSn,0.0
mp-22337,Hf5Ga3,0.0
mp-22706,Mn3GeC,0.0
mp-22891,Bi2O3,0.0
mp-23154,Br,1.4492
mp-25435,TiPO4,0.0
mp-25472,Co(WO4)2,0.0
mp-25523,Fe(SiO3)2,0.0
mp-25658,Co2P3O10,0.08229999999999982
mp-28301,OsBr4,0.0
mp-28740,SrTi11O20,0.012199999999999989
mp-29035,Sr(YS2)2,1.8113000000000001
mp-29310,Si2H6Se,3.7464000000000004
mp-30450,Mn3(CuBi)4,0.0
mp-30459,ScNiBi,0.18440000000000012
mp-30701,Sc3(Ga3Fe)2,0.0
mp-31130,ErNi7B3,0.0
mp-3190,Er(FeB)2,0.0
mp-32028,Mn(PO3)4,0.43579999999999997
mp-32755,La2Te3,0.9992000000000001
mp-32983,Nb3S5,0.0
mp-35,Mn,0.0
mp-3758,Eu(NiP)2,0.0
mp-39540,CrSiH12(OF)6,0.0
mp-450,NbB2,0.0
mp-4502,Ta6Si7Ni16,0.0
mp-504290,MoP2O7,1.9726000000000001
mp-504858,CoCu2O3,0.014499999999999957
mp-505330,Tm2Mn3Si5,0.0
mp-505334,Dy2Mn3Si5,0.0
mp-5175,NaInO2,1.9142000000000001
mp-5313,HoCo3B2,0.0
mp-532270,Tl9SbSe6,0.0
mp-540011,Li2Ni(PO3)5,0.0
mp-540321,FeP2O7,0.0
mp-540363,VP2O7,1.1998999999999997
mp-5408,Ag3AsO4,0.0
mp-555935,Ta2S,0.0
mp-556185,RbNaTiO3,3.4598999999999998
mp-558273,Ca3SiO5,3.2782999999999998
mp-558660,Mg2BiPO6,3.6229999999999998
mp-558942,CaFeClO2,1.9231999999999998
mp-5597,Ca(FeP)2,0.0
mp-561825,Sr2Mn3(BiO)2,0.0
mp-562,Sb2Pt,0.0
mp-5622,Nd(CoP)2,0.0
mp-565228,Ca3Mn2(Si2O7)2,1.8170000000000002
mp-566229,CaMn3O6,0.0
mp-566482,V6O13,0.0
mp-566620,MgV2(CuO4)2,0.17790000000000017
mp-568347,NbSe2,0.0
mp-568448,Cs2AgAuCl6,0.0
mp-568928,Rb2FeI4,0.0
mp-571256,MoCl5,0.0
mp-571416,Sr14Al8Ge3,0.04689999999999994
mp-574239,Tm3AlC,0.0
mp-5916,Yb(SiNi)2,0.0
mp-603251,PdO,0.0
mp-616572,Li2P2PdO7,1.2047999999999999
mp-6224,LiScSiO4,4.612299999999999
mp-622482,BaY2CoO5,1.8631000000000002
mp-631330,LiTaW2,0.0
mp-631481,NaSrNb2,0.0
mp-639160,Gd2InGe2,0.0
mp-6696,K2Ti2(PO4)3,0.0
mp-672229,Mn3ZnC,0.0
mp-672356,MnSbPt,0.0
mp-672375,ThNiSn,0.0
mp-672385,UNiSn,0.0
mp-672698,GeTe,0.0
mp-680706,Y13Sn31Pd40,0.0
mp-684028,Li3Bi(PO4)2,3.7489999999999997
mp-684697,Sc20O19,0.0
mp-690987,Na7Al10Si14(AgO16)3,2.3087999999999997
mp-694890,NaCaFe2(SiO3)4,1.2069999999999999
mp-694916,Ca9LaTi8Mn2O30,0.0
mp-694930,Na2FeSn(PO4)3,2.2908999999999997
mp-694972,Ce10Si10BrN17O9,0.0
mp-695001,V6Cu5Te12,0.0
mp-695154,Na7Bi3P12(Pb5O24)2,3.4194999999999998
mp-695213,Na9Sr2La9Ti20O60,1.9492000000000003
mp-695535,Ba13Ru10BrO36,0.0
mp-699325,Al2CoO4,1.9934000000000003
mp-706269,MgNb5O9,0.0
mp-73,Ti,0.0
mp-740930,LaP3(HO)6,1.2893000000000001
mp-7425,TbPt,0.0
mp-744073,Mo3H8C4SN2Cl6O7,1.1219999999999999
mp-744075,Ca8La2Ti5Cr5O30,0.0
mp-744266,Sr20Fe3Co7(MoO6)10,0.9566999999999997
mp-744380,Ca9LaTi4Mn6O30,0.0
mp-752404,Ba2Sb2O7,0.9781999999999997
mp-753580,LiTiSiO4,0.0
mp-7590,GeP,0.0
mp-7591,GeAs,0.0
mp-760273,LiAg2F5,0.0
mp-761068,Na11Ti8(PO4)12,0.0
mp-761515,Li6V3P8O29,0.9566000000000001
mp-761625,Li7V3P8O29,0.0
mp-761748,Li2CrCo3O8,0.0
mp-761757,Li8V3P8O29,0.931
mp-761777,Li2CoNi3O8,0.0
mp-763349,Li2MnF4,3.9690000000000003
mp-763732,Li3Fe4P3H12O19,0.07379999999999987
mp-764028,Li3Co4O4F3,0.0
mp-764098,Li2Ni3TeO8,0.0
mp-764222,LiCo2OF3,1.7482999999999997
mp-765878,Li2NiP3O10,0.0
mp-766354,Bi25O38,0.44150000000000045
mp-766888,Sb9PO25,0.0
mp-767086,Li5MgTi12O24,0.0
mp-769981,Li4Cr3GaO8,3.1792000000000002
mp-770018,Li2Ti3FeO8,0.0
mp-770714,LiAlFeO4,0.0
mp-770953,Be(FeO2)2,1.7507000000000001
mp-771689,Li3FeCu3O8,0.0
mp-771714,Li3MnNi3O8,0.0
mp-774217,Na13Ti24O54,0.0
mp-774273,Li6V3P8O29,1.4243000000000001
mp-774285,Li2Zr7Fe(PO4)12,0.0
mp-774459,Li8Ti16CuS32,0.0
mp-774710,Ba14Y7(Cu10O21)2,0.0
mp-774711,Ba14LiY7(Cu10O21)2,0.0
mp-775058,Li3NbV4O8,0.0
mp-775082,Li3Fe4SbO8,1.513
mp-775212,MnV2(PO4)3,0.0
mp-776829,Li8Mn7Cr(PO4)12,0.0
mp-776877,Mn2Cr(PO4)3,0.0
mp-777003,Fe7Te(PO4)12,0.004299999999999998
mp-777004,Li9Fe7(PO4)12,0.0
mp-777017,Li8Mn7Ni(PO4)12,0.0
mp-777033,Li9V19O48,1.2160999999999997
mp-777217,Li8TiFe7(PO4)12,0.0
mp-777316,Li8MnNi7(PO4)12,0.0
mp-777486,MgCr7(SO4)12,0.0
mp-777579,Li8Fe7Sn(PO4)12,0.0
mp-778640,Fe6O7F5,0.0
mp-778927,Fe6O7F5,0.0
mp-779894,Fe6O7F5,0.0
mp-781609,Ho3Fe5O12,1.8603999999999998
mp-8101,WN2,0.0
mp-815,GaNi3,0.0
mp-817,TmTl3,0.0
mp-8222,AgO,0.0
mp-828,SiNi3,0.0
mp-829,AlPd,0.0
mp-832,HoPd,0.0
mp-836,TbZn,0.0
mp-8370,Ni3GeC,0.0
mp-8396,CsEuF3,0.0
mp-8402,RbMgF3,6.938400000000001
mp-849270,Ti17(NO4)6,0.0
mp-849406,K4Li3Nb18P12(WO42)2,0.9309000000000003
mp-850231,Li2TiFe3O8,0.0
mp-850504,CsCoH24(SO10)2,0.0
mp-851292,Li9Nb10Cr6(PO4)24,0.030799999999999716
mp-8546,SmB4,0.0
mp-861625,LiZnAg2,0.0
mp-862777,TmPaRu2,0.0
mp-8629,Si,0.0
mp-862932,ThInAg2,0.0
mp-864625,Ho2IrRh,0.0
mp-864761,Ta2MnOs,0.0
mp-864805,Nd2CuIr,0.0
mp-865115,NaNdHg2,0.0
mp-865155,MgAlRh2,0.0
mp-865162,MgGeRh2,0.0
mp-865187,MgFeRh2,0.0
mp-865890,Li2CaIn,0.0
mp-865926,Cd2PdRh,0.0
mp-866106,Ba2HgPb,0.0
mp-867117,Sc2CuPt,0.0
mp-867118,LaSnAu2,0.0
mp-867279,DyPaRu2,0.0
mp-867283,Ho2CuRu,0.0
mp-868003,LaInAu2,0.0
mp-8863,Ba3MoN4,1.8505000000000003
mp-922,CoPt3,0.0
mp-932,ScGa3,0.0
mp-934,LiTl,0.0
mp-9596,La(BIr)4,0.0
mp-971948,Zn3Co,0.0
mp-972246,Tb2ReC2,0.0
mp-972528,SmYAg2,0.0
mp-972541,SmTmTl2,0.0
mp-973136,LiSmO3,0.0
mp-973156,ScAsO3,0.0
mp-973181,Mn3Zn,0.0
mp-973191,LiTl3,0.0
mp-973229,ScNb,0.0
mp-973232,NdTm3,0.0
mp-973267,KTcO3,0.0
mp-973269,SbTeO3,0.0
mp-973292,MnBe3,0.0
mp-973335,Hg2H6CN3Cl5,2.442
mp-973396,KBeO3,0.0
mp-973447,KBaO3,0.0
mp-973450,Hg3C,0.0
mp-973466,In3As,0.0
mp-973471,KReO3,0.0
mp-973486,LuVO3,0.0
mp-973534,FeRe,0.0
mp-973556,LuTh3,0.0
mp-973579,FePbO3,0.0
mp-973613,LiCeO3,0.0
mp-973736,GeAs3,0.0