task_id,composition,band_gap
mp-862696,CeGa3,0.0
mp-1226613,CeGa3Cu,0.0
mp-1226580,CeGa3Ni,0.0
mp-1078348,CeGa3Pd,0.0
mp-3494,CeGa3Pd2,0.0
mp-1006277,CeGa4Co9,0.0
mp-30267,CeGa4Os,0.0
mp-711,CeGa6,0.0
mp-1190078,CeGa6Ni,0.0
mp-580215,CeGa6Pd,0.0
mp-1203026,CeGa8Pd3,0.0
mp-1077578,CeGaAg,0.0
mp-1071448,CeGaCo,0.0
mp-1226702,CeGaCu4,0.0
mp-1025144,CeGaGe,0.0
mp-1213791,CeGaIr,0.0
mp-31492,CeGaNi,0.0
mp-1226588,CeGaNi4,0.0
mp-1102053,CeGaPd,0.0
mp-639863,CeGaPd2,0.0
mp-1103487,CeGaPt,0.0
mp-1226944,CeGaPt4,0.0
mp-1102417,CeGaRh,0.0
mp-1185539,CeGd3,0.0
mp-1226544,CeGdN2,0.0
mp-1079395,CeGe,0.0
mp-21055,CeGe2,0.0
mp-13122,CeGe3Ir,0.0
mp-21689,CeGe3Pd5,0.0
mp-13121,CeGe3Rh,0.0
mp-1198354,CeGe3Ru,0.0
mp-984703,CeGe5,0.0
mp-4219,CeGeAu,0.0
mp-1206513,CeGeBi2,0.0
mp-20022,CeGeIr,0.0
mp-1213932,CeGeO2,0.0
mp-1188948,CeGePd2,0.0
mp-627355,CeGePt,0.0
mp-505282,CeGeRh,0.0
mp-505569,CeH2,0.0
mp-1008376,CeH3,0.0
mp-642731,CeH3(CO2)3,0.0
mp-510452,CeHSO5,0.01970000000000028
mp-30506,CeHg2,0.0
mp-862668,CeHg3,0.0
mp-1184341,CeHgAu2,0.0
mp-1079310,CeHgPd,0.0
mp-1183834,CeHo3,0.0
mp-1226677,CeHo4S7,0.0
mp-1183753,CeHoIn2,0.0
mp-1183859,CeHoMg2,0.0
mp-1183730,CeHoZn2,0.0
mp-21278,CeIn2Ir,0.0
mp-21460,CeIn2Pd,0.0
mp-1191263,CeIn2Pd3,0.0
mp-1206576,CeIn2Rh,0.0
mp-20369,CeIn3,0.0
mp-1229267,CeIn3(CuSe2)4,0.0
mp-1214689,CeIn3Pt,0.0
mp-1102039,CeIn4Ni,0.0
mp-642458,CeIn4Pd,0.0
mp-19961,CeIn5Co,0.0
mp-20975,CeIn5Ir,0.0
mp-20294,CeIn5Rh,0.0
mp-1227242,CeIn7Cu5,0.0
mp-1078439,CeIn7Pt2,0.0
mp-672191,CeInAg2,0.0
mp-19718,CeInAu,0.0
mp-636232,CeInAu2,0.0
mp-20665,CeInCu,0.0
mp-19834,CeInCu2,0.0
mp-1226682,CeInCuAg,0.0
mp-1206393,CeInNi4,0.0
mp-21387,CeInPd,0.0
mp-20231,CeInPd2,0.0
mp-640922,CeInPt,0.0
mp-1071478,CeInPt4,0.0
mp-1079553,CeInRh,0.0
mp-582,CeIr2,0.0
mp-1191930,CeIr3,0.0
mp-1226564,CeIrOs,0.0
mp-1226519,CeIrPt,0.0
mp-1226499,CeLuAl4,0.0
mp-1183764,CeLuMg2,0.0
mp-1213810,CeLuO3,0.0
mp-1092225,CeLuS3,0.0
mp-1038816,CeMg,0.0
mp-1202058,CeMg(N3O13)2,0.0
mp-1202143,CeMg(NO4)6,0.0
mp-1205661,CeMg(NiH)4,0.0
mp-1103919,CeMg12,0.0
mp-1099098,CeMg14Bi,0.0
mp-1099116,CeMg14C,0.0
mp-1099096,CeMg14Cd,0.0
mp-1099113,CeMg14Co,0.0
mp-1099091,CeMg14Cu,0.0
mp-1028432,CeMg14Fe,0.0
mp-1099081,CeMg14Ni,0.0
mp-1099093,CeMg14Si,0.0
mp-1099079,CeMg14Sn,0.0
mp-1039304,CeMg2,0.0
mp-30504,CeMg2Cu,0.0
mp-542934,CeMg2Cu9,0.0
mp-1226521,CeMg2Fe,0.0
mp-697677,CeMg2H7,0.0
mp-1226627,CeMg2Ni,0.0
mp-1798,CeMg3,0.0
mp-1038976,CeMg5,0.0
mp-1099111,CeMg6Al,0.0
mp-1017491,CeMg6B,0.0
mp-1099331,CeMg6Bi,0.0
mp-1100152,CeMg6C,0.0
mp-1099327,CeMg6Cr,0.0
mp-1099323,CeMg6Cu,0.0
mp-1022318,CeMg6Fe,0.0
mp-1099330,CeMg6Ga,0.0
mp-1099328,CeMg6Ni,0.0
mp-1099334,CeMg6Sb,0.0
mp-1099326,CeMg6Si,0.0
mp-1099311,CeMg6V,0.0
mp-1099273,CeMg6Zn,0.0
mp-1080547,CeMgAg,0.0
mp-759835,CeMgAu,0.0
mp-1183717,CeMgAu2,0.0
mp-1183727,CeMgCd2,0.0
mp-1205969,CeMgCu,0.0
mp-22237,CeMgCu2,0.0
mp-21375,CeMgGa,0.0
mp-1183744,CeMgHg2,0.0
mp-19731,CeMgPd,0.0
mp-1213760,CeMgRh,0.0
mp-3545,CeMgSi2,0.0
mp-1095568,CeMgSn,0.0
mp-21518,CeMgTl,0.0
mp-1106150,CeMn4(CuO4)3,0.0
mp-1226628,CeMnAl,0.0
mp-1078286,CeMnAsO,0.0
mp-1226532,CeMnCrSi2,0.0
mp-21399,CeMnGe,0.0
mp-1226888,CeMnIn,0.0
mp-5951,CeMnNi4,0.0
mp-1183706,CeMnO3,0.0
mp-505331,CeMnSi,0.0
mp-5901,CeMnSi2,0.0
mp-1226515,CeMnSi2Pd,0.0
mp-1206151,CeMnSn2,0.0
mp-1182627,CeMo12(NO27)2,0.0
mp-1196379,CeMoClO4,0.0
mp-1213789,CeMoO2,0.0
mp-1227785,CeNb3O9,0.0
mp-1183755,CeNd3,0.0
mp-1227197,CeNd3(Fe14B)2,0.0
mp-1226600,CeNd3C8,0.0
mp-1226518,CeNdAl4,0.0
mp-1226536,CeNdC4,0.0
mp-1183768,CeNdHg2,0.0
mp-570728,CeNdI4,0.0
mp-1226534,CeNdN2,0.0
mp-1226502,CeNdS2,0.0
mp-1226607,CeNdSi2,0.0
mp-1183819,CeNdZn2,0.0
mp-21188,CeNi,0.0
mp-1654,CeNi2,0.0
mp-10860,CeNi2B2C,0.0
mp-1226793,CeNi2B3,0.0
mp-1196766,CeNi2N17O24,0.0
mp-580354,CeNi3,0.0
mp-1095459,CeNi4B,0.0
mp-1910,CeNi5,0.0
mp-574423,CeNi5Sn,0.0
mp-1193206,CeNi9Ge4,0.0
mp-1061766,CeNiAs,0.0
mp-1079455,CeNiAsO,0.0
mp-1191074,CeNiB4,0.0
mp-19741,CeNiC2,0.0
mp-3541,CeNiGe2,0.0
mp-1103629,CeNiP,0.0
mp-1103296,CeNiPt,0.0
mp-579812,CeNiSb3,0.0
mp-21119,CeNiSn,0.0
mp-1025558,CeNiSn2,0.0
mp-643790,CeNiSnH,0.0
mp-542856,CeNiSnH2,0.0
mp-10688,CeO,0.0
mp-1205900,CeO3,0.0
mp-755074,CeOF,0.0
mp-1226566,CeOsRu,0.0
mp-2154,CeP,0.0
mp-568080,CeP2,0.0
mp-1183770,CeP3,0.0
mp-566,CeP5,0.0
mp-12920,CePIr,0.0
mp-1205728,CePOs2C,0.0
mp-7003,CePPd,0.0
mp-1080729,CePRu2C,0.0
mp-21372,CePRuO,0.0
mp-1006371,CePS,0.0
mp-1183709,CePa3,0.0
mp-1226494,CePaO4,0.0
mp-1206707,CePb2,0.0
mp-20225,CePb3,0.0
mp-1018661,CePbAu,0.0
mp-1183814,CePbAu2,0.0
mp-1018086,CePd,0.0
mp-1063522,CePd2,0.0
mp-1226474,CePd2Pt,0.0
mp-2092,CePd3,0.0
mp-1025415,CePd7,0.0
mp-1226749,CePdPt4,0.0
mp-1226507,CePdRh2,0.0
mp-1183863,CePm3,0.0
mp-1183812,CePmMg2,0.0
mp-983551,CePmTl2,0.0
mp-983559,CePmZn2,0.0
mp-1226529,CePr2O6,0.0
mp-1183736,CePr3,0.0
mp-1227066,CePr3Fe34,0.0
mp-1226562,CePr3O8,0.0
mp-1226585,CePr4O10,0.0
mp-1226498,CePrAl4,0.0
mp-1226526,CePrFe4,0.0
mp-1183860,CePrHg2,0.0
mp-1183722,CePrMg2,0.0
mp-1226481,CePrO4,0.0
mp-21245,CePt,0.0
mp-2109,CePt2,0.0
mp-1226653,CePt2Au3,0.0
mp-11318,CePt3,0.0
mp-1226629,CePt4Rh,0.0
mp-542777,CePt5,0.0
mp-1226551,CePtRh,0.0
mp-1226492,CePu,0.0
mp-1227015,CePu4,0.0
mp-510122,CePu4Co3,0.0
mp-1226700,CePuCo4,0.0
mp-1226594,CePuFe4,0.0
mp-1183759,CePuO3,0.0
mp-1206583,CeRe2SiC,0.0
mp-22361,CeReB4,0.0
mp-769239,CeReO4,0.0
mp-951,CeRh2,0.0
mp-1518,CeRh3,0.0
mp-22519,CeRh3C,0.0
mp-637637,CeRhC2,0.0
mp-1213826,CeRhO3,0.0
mp-1079682,CeRhPb,0.0
mp-607,CeRu2,0.0
mp-1206127,CeRu3C,0.0
mp-1226581,CeRuRh,0.0
mp-1096,CeS,0.0
mp-1018663,CeS2,0.0
mp-1183858,CeS3,0.0
mp-1182807,CeS4(N2O9)2,0.0
mp-1213818,CeSBr,0.0
mp-1213844,CeSCl,0.0
mp-4973,CeSF,0.0
mp-387,CeSb,0.0
mp-680417,CeSb(SBr)2,0.0
mp-1102986,CeSb2,0.0
mp-1079698,CeSb2Au,0.0
mp-1079881,CeSb2Pd,0.0
mp-1183738,CeSb3,0.0
mp-1078616,CeSb3Pd,0.0
mp-1095307,CeSbAu,0.0
mp-1101808,CeSbIr,0.0
mp-1024986,CeSbPd,0.0
mp-1104316,CeSbPt5,0.0
mp-22249,CeSbRh,0.0
mp-1103153,CeSbSe,0.0
mp-30152,CeSbTe,0.0
mp-1226553,CeScAl4,0.0
mp-16275,CeScGe,0.0
mp-1226501,CeScPd6,0.0
mp-20953,CeScS3,0.0
mp-1077197,CeScSb,0.0
mp-10087,CeScSi,0.0
mp-2563,CeSe,0.0
mp-1096430,CeSe2,0.0
mp-21115,CeSi,0.0
mp-1898,CeSi2,0.0
mp-1080480,CeSi2Ag,0.0
mp-1079402,CeSi2Ir,0.0
mp-13475,CeSi2Ir3,0.0
mp-1018666,CeSi2Mo2C,0.0
mp-1191823,CeSi2Ni9,0.0
mp-1226508,CeSi2OsRu,0.0
mp-1025411,CeSi2Rh,0.0
mp-1213768,CeSi2Rh3,0.0
mp-1025521,CeSi2Ru,0.0
mp-30043,CeSi2Ru3,0.0
mp-1226491,CeSi2RuRh,0.0
mp-1068906,CeSi3Ir,0.0
mp-1068364,CeSi3Os,0.0
mp-1207122,CeSi3Pt,0.0
mp-1070394,CeSi3Rh,0.0
mp-13120,CeSi3Ru,0.0
mp-31051,CeSi4Ni9,0.0
mp-1072085,CeSi5,0.0
mp-1226531,CeSiBIr3,0.0
mp-1226584,CeSiBRh3,0.0
mp-1206173,CeSiGe,0.0
mp-1226545,CeSiGePd2,0.0
mp-1226517,CeSiGeRh2,0.0
mp-604496,CeSiHRu,0.0
mp-1105540,CeSiIr2,0.0
mp-651175,CeSiNO2,0.0
mp-20710,CeSiNi,0.0
mp-1072537,CeSiNi4,0.0
mp-1205921,CeSiOs2C,0.0
mp-651900,CeSiP3,0.0
mp-1213807,CeSiPd,0.0
mp-1181683,CeSiPd2,0.0
mp-1072580,CeSiPt,0.0
mp-1213785,CeSiRh,0.0
mp-31078,CeSiRh2,0.0
mp-8653,CeSiRu,0.0
mp-1205654,CeSiRu2C,0.0
mp-1226552,CeSm,0.0
mp-1006246,CeSm3,0.0
mp-1226571,CeSm3S4,0.0
mp-1226503,CeSmB12,0.0
mp-1226561,CeSmFe4,0.0
mp-570470,CeSmI4,0.0
mp-1183845,CeSmMg2,0.0
mp-754040,CeSmO2,0.0
mp-1183757,CeSmTl2,0.0
mp-1183758,CeSmZn2,0.0
mp-1911,CeSn3,0.0
mp-1198476,CeSn3Ru,0.0
mp-11081,CeSnAu,0.0
mp-867310,CeSnAu2,0.0
mp-20835,CeSnIr,0.0
mp-21490,CeSnPd,0.0
mp-20834,CeSnPt,0.0
mp-12374,CeSnRh,0.0
mp-610687,CeSnRu,0.0
mp-505070,CeTa3O9,0.0
mp-1183701,CeTaO3,0.0
mp-22074,CeTaO4,0.0
mp-1525,CeTe,0.0
mp-505536,CeTe2,0.0
mp-571571,CeTe3,0.0
mp-1226523,CeTh,0.0
mp-1226520,CeTh2S3,0.0
mp-1183732,CeTh3,0.0
mp-1226717,CeTh3Al2,0.0
mp-1226486,CeThB12,0.0
mp-1226547,CeThB8,0.0
mp-1226555,CeThC2,0.0
mp-1226550,CeThCN,0.0
mp-1226556,CeThN2,0.0
mp-1226483,CeThS2,0.0
mp-1226485,CeThSi4,0.0
mp-1227587,CeThUS5,0.0
mp-19860,CeTiGe,0.0
mp-1227002,CeTiNbO6,0.0
mp-754524,CeTiO3,0.0
mp-1206755,CeTl,0.0
mp-1213849,CeTl(MoO4)2,0.0
mp-1213822,CeTl(WO4)2,0.0
mp-1213909,CeTl2(PO3)5,0.19559999999999972
mp-638100,CeTl2P2S7,0.0
mp-863765,CeTl5Co2(NO2)12,0.0
mp-555459,CeTl5Cu2(NO2)12,0.0
mp-579665,CeTl5Fe2(NO2)12,0.0
mp-565250,CeTl5Ni2(NO2)12,0.0
mp-867298,CeTlAg2,0.0
mp-867361,CeTlAu2,0.0
mp-1018668,CeTlCd,0.0
mp-30512,CeTlPd,0.0
mp-1078723,CeTlSe2,0.0
mp-1079792,CeTlTe2,0.0
mp-1183813,CeTm3,0.0
mp-1226595,CeTm4S7,0.0
mp-1184197,CeTmIn2,0.0
mp-1183796,CeTmMg2,0.0
mp-1213788,CeTmO3,0.0
mp-541836,CeTmS3,0.0
mp-1226640,CeU(Pt4Au)2,0.0
mp-1226535,CeU2O6,0.0
mp-1227523,CeU2S5,0.0
mp-1226646,CeU3Al8,0.0
mp-1226701,CeU4C5,0.0
mp-1226573,CeU4N5,0.0
mp-1226587,CeU4O10,0.0
mp-753493,CeU5O12,0.0
mp-1226540,CeUB8,0.0
mp-1226563,CeUCN,0.0
mp-1226672,CeUFe4,0.0
mp-1226527,CeUN2,0.0
mp-1226546,CeUO4,0.0
mp-1226480,CeUSi4,0.0
mp-1226774,CeUTe6,0.0
mp-1226591,CeUZn17,0.0
mp-1201268,CeV2IO9,0.0
mp-1213836,CeVO2,0.0
mp-19214,CeVO4,0.0
mp-1226533,CeY,0.0
mp-1226694,CeY(AlPd)2,0.0
mp-1226593,CeY(GaPd2)2,0.0
mp-1227301,CeY(GePt)4,0.0
mp-1226870,CeY(MgNi4)2,0.0
mp-1226510,CeY2(AlPd)3,0.0
mp-1006351,CeY3,0.0
mp-1226574,CeY4Mg5,0.0
mp-1226611,CeY4Rh5,0.0
mp-1226610,CeY4S7,0.0
mp-1226710,CeY4Zn5,0.0
mp-1226528,CeYAl4,0.0
mp-1226612,CeYCo17,0.0
mp-1226470,CeYCo4,0.0
mp-1226542,CeYCu4,0.0
mp-1226946,CeYFe17,0.0
mp-1226473,CeYFe4,0.0
mp-984048,CeYIn2,0.0
mp-1226769,CeYIn6,0.0
mp-866045,CeYMg2,0.0
mp-1226495,CeYMg4,0.0
mp-1226560,CeYNi4,0.0
mp-1226466,CeYRh4,0.0
mp-1006256,CeYTl2,0.0
mp-984049,CeYZn2,0.0
mp-986,CeZn,0.0
mp-640370,CeZn11,0.0
mp-1385,CeZn2,0.0
mp-867186,CeZn2Ag,0.0
mp-1207054,CeZn2Co,0.0
mp-1226493,CeZn2Fe,0.0
mp-1226565,CeZn2Ni,0.0
mp-1226538,CeZn2Ni3,0.0
mp-640118,CeZn3,0.0
mp-7247,CeZn3Cu2,0.0
mp-13118,CeZn3Pd2,0.0
mp-394,CeZn5,0.0
mp-1226469,CeZnAgAs2,0.0
mp-13549,CeZnAu,0.0
mp-1183743,CeZnAu2,0.0
mp-1213915,CeZnCo2,0.0
mp-1226509,CeZnCuP2,0.0
mp-1018671,CeZnGa,0.0
mp-19927,CeZnGe,0.0
mp-1006399,CeZnIn,0.0
mp-1079342,CeZnNi,0.0
mp-1193027,CeZnNi2,0.0
mp-1226673,CeZnNi4,0.0
mp-13207,CeZnPO,0.0
mp-13382,CeZnPd,0.0
mp-12504,CeZnPt,0.0
mp-607738,CeZnRh,0.0
mp-22620,CeZnSbO,0.0
mp-1226464,CeZnSi,0.0
mp-20886,CeZnSn,0.0
mp-1226679,CeZr3Mn8,0.0
mp-757324,CeZr6O14,2.152
mp-23207,ClO2,0.964
mp-1069105,Co(BMo)2,0.0
mp-1226641,Co(BRh2)3,0.0
mp-7573,Co(BW)2,0.0
mp-27768,Co(BW)3,0.0
mp-766738,Co(BiO3)2,0.0
mp-1181907,Co(BrO3)2,0.0
mp-1214071,Co(BrO6)2,0.0
mp-22403,Co(C2N3)2,0.0
mp-1069855,Co(ClO)2,0.0
mp-1181665,Co(ClO3)2,0.0
mp-773271,Co(CuO2)4,0.0
mp-1226484,Co(CuO3)2,0.0
mp-1204312,Co(IN2)3,0.0
mp-1079998,Co(IN3)2,0.0
mp-675208,Co(Mo3Se4)4,0.0
mp-7923,Co(MoS2)2,0.0
mp-1080142,Co(N2Cl)3,0.0
mp-1079107,Co(N3Cl)2,0.0
mp-1182597,Co(N4Cl)2,0.23199999999999998
mp-1190777,Co(NO4)2,0.0
mp-1104601,Co(NO5)2,0.0
mp-769882,Co(NiO2)2,0.0
mp-674355,Co(NiS2)2,0.0
mp-1226512,Co(NiSe2)2,0.0
mp-1213782,Co(O2F)2,0.0
mp-31550,Co(PO3)4,0.0
mp-1213861,Co(PO5)2,0.0
mp-12464,Co(PdSe)2,0.0
mp-1226583,Co(ReO3)2,0.0
mp-1226570,Co(RhO3)2,0.0
mp-1078249,Co(RhSe2)2,0.0
mp-772442,Co(SO4)2,0.0
mp-1078078,Co(SiSe2)2,0.0
mp-12465,Co(TePd)2,0.0
mp-1193835,Co(WCl5)2,0.0
mp-25472,Co(WO4)2,0.0
mp-1227035,Co10SnSb30,0.0
mp-1226643,Co11B4SbO20,0.0
mp-761492,Co11CuO16,0.0
mp-1226575,Co12Ge4C,0.0
mp-685129,Co17Se20,0.0
mp-684822,Co19Te34,0.0
mp-542728,Co21(B3Mo)2,0.0
mp-505544,Co21(B3Sb)2,0.0
mp-672221,Co21(B3W)2,0.0
mp-1193515,Co21(GeB3)2,0.0
mp-541852,Co21(ReB3)2,0.0
mp-542739,Co21(SnB3)2,0.0
mp-851287,Co21O40,0.0
mp-1194407,Co22B6Sb,0.0
mp-639154,Co23B6,0.0
mp-762204,Co25Cu11O48,0.0
mp-684829,Co27Se32,0.0
mp-764992,Co29Ge13O56,0.0
mp-18206,Co2As,0.0
mp-1203275,Co2AsO5,0.0
mp-493,Co2B,0.0
mp-1213790,Co2BO4,0.46799999999999997
mp-22488,Co2C,0.0
mp-1226931,Co2Cu3(CN)12,0.0
mp-19955,Co2CuGe2,0.0
mp-761472,Co2CuO4,0.0
mp-3925,Co2CuS4,0.0
mp-771497,Co2HgO4,0.0
mp-1191860,Co2Ir(NCl)10,0.0
mp-1182516,Co2Mo3,0.0
mp-542316,Co2Mo3N,0.0
mp-19612,Co2Mo3O8,0.0
mp-505574,Co2Mo4C,0.0
mp-644838,Co2Mo4N,0.0
mp-1023124,Co2MoS4,0.0
mp-22631,Co2N,0.0
mp-1199828,Co2N15O11,0.0
mp-1182683,Co2N16O9,0.0
mp-1226586,Co2Ni2Te5,0.0
mp-762172,Co2Ni3Sb(PO4)6,0.0
mp-38683,Co2NiO4,0.0
mp-761554,Co2NiO6,0.0
mp-22658,Co2NiS4,0.0
mp-1025190,Co2NiSe4,0.0
mp-1178456,Co2O3F,0.0
mp-782656,Co2OF3,0.0
mp-22204,Co2P,0.0
mp-31620,Co2P5O16,0.0
mp-1105140,Co2PO5,0.0
mp-1226453,Co2PS3,0.0
mp-1226439,Co2Pd,0.0
mp-1226558,Co2Re5B4,0.0
mp-675644,Co2RhS4,0.0
mp-34586,Co2RuO4,0.0
mp-1183728,Co2S3,0.0
mp-1213900,Co2S3(NO6)2,0.0
mp-859782,Co2SbO6,0.0
mp-675568,Co2SbTe,0.0
mp-19905,Co2Si,0.0
mp-1105498,Co2Si3,0.0
mp-571365,Co2Sn,0.0
mp-36069,Co2TcO4,0.0
mp-640163,Co2W4C,0.0
mp-764877,Co3(O2F)2,0.0
mp-540500,Co3(P2O7)2,0.02000000000000001
mp-1193155,Co3(PO5)2,0.0
mp-1213771,Co3(ReB)4,0.0
mp-19807,Co3(SnS)2,0.0
mp-1202680,Co3(TeO4)2,0.0
mp-1199098,Co3(W5C2)2,0.0
mp-20373,Co3B,0.0
mp-985280,Co3Bi,0.0
mp-20925,Co3C,0.0
mp-1183689,Co3Cl,0.0
mp-1183752,Co3Cu,0.0
mp-775177,Co3Cu(PO4)4,0.0
mp-761933,Co3Cu3(TeO8)2,0.0
mp-1226445,Co3Ge2,0.0
mp-541296,Co3H2Se3O10,2.486
mp-1183756,Co3I,0.0
mp-1226447,Co3Ir,0.0
mp-1139,Co3Mo,0.0
mp-1194380,Co3Mo3C,0.0
mp-22166,Co3Mo3N,0.0
mp-1205986,Co3N,0.0
mp-1183837,Co3Ni,0.0
mp-775307,Co3Ni(PO4)4,0.0
mp-1226465,Co3Ni3S8,0.0
mp-1226652,Co3Ni9P4,0.0
mp-765866,Co3NiO8,0.0
mp-1226458,Co3NiSb12,0.0
mp-18748,Co3O4,0.0
mp-780770,Co3O5F,0.0
mp-1183718,Co3Os,0.0
mp-1213762,Co3P,0.0
mp-1202222,Co3P2O9,0.0
mp-31610,Co3P3O11,0.0
mp-850473,Co3P4O15,0.0
mp-1226460,Co3PW2,0.0
mp-865193,Co3Pt,0.0
mp-1226569,Co3Re25B12,0.0
mp-1226435,Co3ReB4,0.0
mp-1226422,Co3Rh,0.0
mp-1183807,Co3Ru,0.0
mp-1183733,Co3S,0.0
mp-943,Co3S4,0.0
mp-761540,Co3SbO8,0.0
mp-1183684,Co3Se,0.0
mp-1079393,Co3Si,0.0
mp-1226069,Co3SiMo2,0.0
mp-1183774,Co3Sn,0.0
mp-20679,Co3SnC,0.0
mp-772446,Co3SnO8,0.0
mp-1183699,Co3Te,0.0
mp-1196606,Co3Te(MoO7)6,0.0
mp-1190932,Co3Te2(PO7)2,0.0
mp-868360,Co3TeO8,0.0
mp-1192636,Co3W3C,0.0
mp-541595,Co3W3N,0.0
mp-1226205,Co3W9C4,0.0
mp-765823,Co3WO8,0.0
mp-1043067,Co4(CuO4)3,0.0
mp-1213876,Co4(MoO4)3,0.0
mp-1226103,Co4B,0.0
mp-1226198,Co4Cu3(NiSe6)2,0.0
mp-1226044,Co4CuNiS8,0.0
mp-1226010,Co4Ge,0.0
mp-652229,Co4Ge(CO)13,1.958
mp-1226072,Co4H,0.0
mp-1206425,Co4N,0.0
mp-773307,Co4NiO8,0.0
mp-1226016,Co4Os,0.0
mp-1226024,Co4Ru,0.0
mp-1226060,Co4SbO8,0.0
mp-15868,Co4SnSb12,0.0
mp-16316,Co5As2,0.0
mp-1194572,Co5B16,0.0
mp-771662,Co5BiO12,0.0
mp-761404,Co5CuO8,0.0
mp-1226056,Co5CuS8,0.0
mp-1226019,Co5NiS8,0.0
mp-1046082,Co5O7,0.0
mp-761471,Co5O8,0.0
mp-1226477,Co5Sb15I,0.0
mp-761557,Co5SbO12,0.0
mp-33332,Co5SbO8,0.0
mp-1226090,Co5Te6,0.0
mp-1193869,Co6Mo6C,0.0
mp-763905,Co6O5F7,0.0
mp-850078,Co6O7F5,0.0
mp-705347,Co6P7O24,0.0
mp-1226155,Co6W20C7,0.0
mp-690550,Co7(RuO6)2,0.0
mp-1226096,Co7Ge4,0.0
mp-1226111,Co7NiP4,0.0
mp-771737,Co7O12,0.0
mp-699375,Co8As3O16,0.0
mp-1228013,Co8Cu7(MoO4)12,0.0
mp-767737,Co9Cu3O16,0.0
mvc-2263,Co9O13,0.0
mp-1513,Co9S8,0.0
mp-22745,Co9Se8,0.0
mp-1181889,CoAg(N3O4)2,0.0
mp-1226122,CoAg2Sn3S8,0.0
mp-1206910,CoAgF3,0.0
mp-769661,CoAgO3,0.0
mp-583,CoAs,0.0
mp-1204225,CoAs3OF18,0.0
mp-1201698,CoAsO5,0.0
mp-1226053,CoAsPd,0.0
mp-1193650,CoAu(BrN)6,0.0
mp-1206590,CoAu3,0.0
mp-1226077,CoAu4,0.0
mp-997158,CoAuO2,0.0
mp-1183686,CoAuO3,0.0
mp-20857,CoB,0.0
mp-21347,CoBMo,0.0
mp-22759,CoBW,0.0
mp-1042672,CoBi2O7,0.0
mp-1059765,CoBr,0.0
mp-1182488,CoBr2N6O,0.0
mp-1202003,CoC12N8(ClO5)2,0.0
mp-567767,CoCN2,0.0
mp-1206633,CoCl6,0.0
mp-6498,CoCu2GeS4,0.0
mp-1226052,CoCu2GeSe4,0.0
mp-11769,CoCu2SiS4,0.0
mp-1226085,CoCu2Sn3S8,0.0
mp-11770,CoCu2SnS4,0.0
mp-11771,CoCu2SnSe4,0.0
mp-775137,CoCu3(PO4)4,0.0
mp-1181785,CoCu3HgSe4,0.0
mp-1226116,CoCuNiS4,0.0
mp-1226070,CoCuS4,0.0
mp-1214108,CoCuSe2(ClO5)2,0.0
mp-561038,CoF3,0.0
mp-30045,CoGe2,0.0
mp-1147778,CoGeAs2,0.0
mp-1226367,CoGeMo,0.0
mp-1206874,CoH,0.0
mp-1197384,CoH12PdC4(NO3)4,0.0
mp-735481,CoH17C(NO)8,0.939
mp-734944,CoH2(SN)4,0.0
mp-1183678,CoH3,0.0
mp-31526,CoHO2,0.0
mp-985285,CoHg3,0.0
mp-1204961,CoHgN6Cl5,0.0
mp-1181743,CoHgS4,0.0
mp-569610,CoI2,0.0
mp-1226007,CoIr,0.0
mp-1226395,CoMo,0.0
mp-1183707,CoMo3,0.0
mp-1226133,CoMo4N5,0.0
mp-1183772,CoMoO3,0.0
mp-22262,CoMoP,0.0
mp-22762,CoN3,0.0
mp-1214768,CoN7ClO5,0.0
mp-1199756,CoN7O8,0.0
mp-1213745,CoNF3,0.0
mp-1226076,CoNi,0.0
mp-1226061,CoNi(AsS)2,0.0
mp-766719,CoNi(PO4)2,0.0
mp-1226098,CoNi(PS3)2,0.0
mp-1226074,CoNi(SbS)2,0.0
mp-1183785,CoNi3,0.0
mp-1226065,CoNi5S8,0.0
mp-1079542,CoNiAs,0.0
mp-1226009,CoNiAs2,0.0
mp-1226021,CoNiGe,0.0
mp-1238777,CoNiO2,0.0
mp-1226037,CoNiP,0.0
mp-1226004,CoNiPt2,0.0
mp-1226064,CoNiS4,0.0
mp-1025009,CoNiSb,0.0
mp-1226120,CoNiSb6,0.0
mp-1226013,CoNiSe2,0.0
mp-1226084,CoNiSe4,0.0
mp-20237,CoNiSn,0.0
mp-1226017,CoNiTe2,0.0
mp-1226048,CoNiTe4,0.0
mp-1079523,CoO4,0.05509999999999994
mp-1226000,CoOs,0.0
mp-22270,CoP,0.0
mp-540494,CoP2O7,0.0
mp-774466,CoP6(WO8)3,0.0
mp-743618,CoPH6O6F,0.0
mp-25473,CoPO4F,0.0
mp-1018673,CoPPd,0.0
mp-676437,CoPS3,0.0
mp-1102504,CoPW,0.0
mp-1183900,CoPb3,0.0
mp-1226001,CoPd,0.0
mp-1183847,CoPd3,0.0
mp-18919,CoPdO2,0.0
mp-949,CoPt,0.0
mp-922,CoPt3,0.0
mp-19210,CoPtO2,0.0
mp-1225995,CoRe,0.0
mp-1205702,CoRe(PbO3)2,0.0
mp-865960,CoRe3,0.0
mp-21464,CoReB,0.0
mp-631310,CoReGe2,0.0
mp-31596,CoReO4,0.0
mp-1226026,CoRh,0.0
mp-1183704,CoRh3,0.0
mp-1183715,CoRhO3,0.0
mp-1226106,CoRhS4,0.0
mp-1225997,CoRu,0.0
mp-1226040,CoRuS4,0.0
mp-1147746,CoS,0.0
mp-2070,CoS2,0.0
mp-1237291,CoS2(NO7)2,0.0
mp-1181832,CoSI,0.0
mp-2644,CoSb,0.0
mp-775019,CoSb(PO4)2,0.0
mp-775217,CoSb3(PO4)6,1.6159999999999999
mp-765886,CoSbO4,0.0
mp-1206379,CoSbRh2,0.0
mp-604908,CoSe,0.0
mp-20862,CoSe2,0.0
mp-1213781,CoSeO5,0.0
mp-1226030,CoSeS,0.0
mp-7577,CoSi,0.0
mp-2379,CoSi2,0.0
mp-1226006,CoSi4Ni,0.0
mp-1226011,CoSi4Ni3,0.0
mp-25485,CoSiH12(OF)6,0.0
mp-1226108,CoSiMo,0.0
mp-1193831,CoSiN5ClF6,0.0
mp-1226107,CoSiW,0.0
mp-20536,CoSn,0.0
mp-20155,CoSn2,0.0
mp-1183777,CoSn3,0.0
mp-505208,CoSnH12(OF)6,0.0
mp-1018085,CoSnRh2,0.0
mp-1225992,CoTc,0.0
mp-865733,CoTc3,0.0
mp-788,CoTe,0.0
mp-1009641,CoTe2,0.0
mp-1077563,CoTeMo,0.0
mp-1225994,CoTeSe,0.0
mp-1007819,CoW,0.0
mp-1183680,CoW3,0.0
mp-1206931,Cr(BMo)2,0.0
mp-698567,Cr(Bi7O12)2,2.018
mp-1226377,Cr(Fe2Sb5)2,0.0
mp-1226104,Cr(FeAs3)2,0.0
mp-568349,Cr(FeSe2)2,0.0
mp-1237584,Cr(FeTe2)2,0.0
mp-985304,Cr(GaS2)2,0.0
mp-677093,Cr(InS2)2,0.0
mp-1103734,Cr(Mo3Se4)2,0.0
mp-542188,Cr(MoS2)2,0.0
mp-1178448,Cr(NO3)5,0.0
mp-675980,Cr(PS3)3,0.0
mp-1226109,Cr(ReO3)2,0.0
mp-1077996,Cr(RhSe2)2,0.0
mp-851282,Cr(SO4)2,0.0
mp-769853,Cr(SbO3)2,0.0
mp-1077939,Cr(Te2Rh)2,0.0
mp-1041693,Cr(WO4)2,0.0
mp-1226285,Cr10Co4CuSe20,0.0
mp-771184,Cr10Fe5O24,0.0
mp-579963,Cr11Ge19,0.0
mp-571123,Cr11Ge8,0.0
mp-766580,Cr11Ni40Mo9,0.0
mp-1226263,Cr11NiS16,0.0
mp-1226081,Cr12As4C3N,0.0
mp-1226144,Cr12As5C,0.0
mp-1226178,Cr12BP3,0.0
mp-1226707,Cr12Fe3S20,0.0
mp-1178459,Cr12Fe7O48,0.0
mp-1226165,Cr12Ga2(CoS8)3,0.0
mp-505626,Cr12P7,0.0
mp-1226578,Cr19S30,0.0
mp-542727,Cr2(Co7B2)3,0.0
mp-1226092,Cr2(NiB2)3,0.0
mp-540211,Cr2(PO4)3,0.0
mp-778446,Cr2(PS4)3,0.0
mp-1193668,Cr20(WC2)3,0.0
mp-1213780,Cr21(FeC3)2,0.0
mp-641573,Cr21(MoC3)2,0.0
mp-641575,Cr21(WC3)2,0.0
mp-1193982,Cr22MoC6,0.0
mp-767825,Cr22Ni50Mo3,0.0
mp-1193310,Cr22WC6,0.0
mp-723,Cr23C6,0.0
mp-1227222,Cr23Ga26Fe3,0.0
mp-1226632,Cr24P11C,0.0
mp-1238827,Cr2AgS4,0.0
mp-20118,Cr2AgTe4,0.0
mp-20552,Cr2As,0.0
mp-676270,Cr2AsSe,0.0
mp-569424,Cr2B,0.0
mp-1188995,Cr2B2Ir,0.0
mp-12054,Cr2B3,0.0
mp-1226478,Cr2B3Os,0.0
mp-1226378,Cr2C,0.0
mp-1077706,Cr2Co,0.0
mp-763120,Cr2CoNi3(PO4)6,0.0
mp-1226398,Cr2CoP3,0.0
mp-21299,Cr2CoS4,0.0
mp-1078160,Cr2CoSe4,0.0
mp-1025239,Cr2CoTe4,0.0
mp-1226392,Cr2Cu(SeS)2,0.0
mp-1194161,Cr2Cu5(P2O9)2,0.0
mp-504573,Cr2CuO4,0.0
mp-1226394,Cr2CuSe3Br,0.0
mp-3880,Cr2CuSe4,0.0
mp-1077708,Cr2Fe,0.0
mp-776011,Cr2Fe3Ni(PO4)6,0.0
mp-1178423,Cr2Fe3P6WO24,0.0
mp-1178441,Cr2Fe3Sb(PO4)6,0.0
mp-1178427,Cr2Fe3Sn(PO4)6,0.0
mp-777216,Cr2Fe3Te(PO4)6,0.0
mp-1213831,Cr2FeNO10,0.0
mp-1205244,Cr2FeNO8,0.0
mp-1078247,Cr2FeS4,0.0
mp-1226416,Cr2FeSeS3,0.0
mp-1025380,Cr2FeTe4,0.0
mp-20197,Cr2GaC,0.0
mp-10371,Cr2GaN,0.0
mp-1104382,Cr2GaS4,0.0
mp-1202850,Cr2HgN2Cl2O7,0.0
mp-15973,Cr2HgS4,0.0
mp-1226386,Cr2HgSe3S,0.0
mp-1084761,Cr2InPd2,0.0
mp-1226368,Cr2InS4,0.0
mp-1226352,Cr2Ir2C,0.0
mp-1183870,Cr2Ir2O5,0.0
mp-8780,Cr2N,0.0
mp-1077252,Cr2Ni,0.0
mp-775941,Cr2Ni3Sb(PO4)6,0.0
mp-1025151,Cr2NiSe4,0.0
mp-1206821,Cr2O,0.0
mp-29184,Cr2P,0.0