task_id,pretty_formula,band_gap
mp-989634,CaTcN3,1.4064999999999999
mp-989636,BaWN3,1.0862000000000003
mp-989640,YTcN3,0.0
mp-989646,LaWN3,1.7100999999999997
mp-990083,MoS2,0.0
mp-990086,Mo9HS18,0.0
mvc-15933,Ca2Bi3O8,0.0
mvc-15935,AlAgO3,0.0
mvc-15937,AlSnO3,0.0
mvc-15945,AlCuO3,0.0
mvc-15968,Se2Cl2O5,0.0
mvc-15980,BiF4,0.9269000000000001
mvc-15989,YWO3,0.0
mvc-15992,MnAlO3,0.0
mvc-15998,Mg3Bi2O7,0.11830000000000052
mvc-16001,AlWO3,0.0
mvc-16014,Al2V2O7,1.4553000000000003
mvc-2158,Ti2ZnN2,0.0
mvc-27,Mg(TiS2)2,0.0
mvc-2971,Mg2Sb3O8,0.0
mvc-3135,TiZnF4,0.0
mvc-3242,ZnSnF4,3.1887999999999996
mvc-3346,MgTiO2,0.0
mvc-3359,Ca3Bi2O7,0.0
mvc-3418,ZnCuF5,0.0
mvc-3497,ZnNiF4,3.6226000000000003
mvc-3511,MgVO2,0.0
mvc-3512,Al2Bi2O7,0.0
mvc-3559,YMoO3,0.0
mvc-3569,YCrO3,0.0
mvc-3570,YCoO3,0.0
mvc-3716,MgVF4,2.5082999999999998
mvc-3726,Ca3W2O7,2.3977999999999997
mvc-3729,MgCoF5,1.9326999999999999
mvc-3737,MgMnF5,1.7288000000000001
mvc-3743,ZnFeF5,3.2672999999999996
mvc-3745,MnZnF5,1.3799000000000001
mvc-3813,CrF5,1.1118999999999999
mvc-3874,ZnBiO3,0.9831000000000003
mvc-3961,Ca2TiSbO6,0.0
mvc-3962,Zn2SnSbO6,0.0
mvc-3972,Ca2SnSbO6,0.0
mvc-3984,Ca2CuSbO6,0.39819999999999967
mvc-4123,Ca2NiSbO6,0.10110000000000019
mvc-4129,Ca2TaTiO6,0.0
mvc-4130,Y(CuO2)2,0.0
mvc-4135,Al(CuO2)2,0.0
mvc-4136,Ca2TaCuO6,0.0
mvc-4139,Mg2TaTiO6,0.0
mvc-4142,Zn2NiSbO6,0.0
mvc-4147,Mg2TaCuO6,0.0
mvc-4168,Ca2TaSnO6,0.014299999999999535
mvc-4172,TaZn2BiO6,2.2340999999999998
mvc-4182,TaZn2SnO6,0.0
mvc-4183,TaTiZn2O6,0.0
mvc-4195,Mg2TaSnO6,0.0
mvc-4245,SbO2,0.036900000000000155
mvc-4274,BiO2,0.0
mvc-4359,Mg2TaFeO6,2.1210999999999998
mvc-4367,Mg2TaNiO6,0.0
mvc-4373,Ca2TaMoO6,1.5726999999999993
mvc-4380,Ca2TaNiO6,0.0
mvc-4383,TaZn2NiO6,0.0
mvc-4419,YTi2O4,0.0
mvc-4450,Al(CuO2)2,0.0
mvc-4454,Ti2AlO4,0.0
mvc-4456,Y(SnO2)2,0.0
mvc-4554,Bi2O5,0.0
mvc-4584,MgTiO2,0.0
mvc-4640,ZnCuO2,0.0
mvc-4886,MgVO2,0.0
mvc-4902,MgNiO2,1.9420000000000002
mvc-4910,CaCu(SiO3)2,0.0
mvc-4912,TiZn(SiO3)2,0.0
mvc-4919,Mg(AgO2)2,0.0
mvc-4931,CaSi2SnO6,2.9821999999999997
mvc-4945,CaTi2O4,0.0
mvc-4949,ZnFeO2,0.881
mvc-4964,MgMn2O4,0.0
mvc-4981,Mg2CrWO6,1.8806000000000003
mvc-4989,Mn2ZnO4,0.0
mvc-4996,Mg2TiWO6,1.7011000000000003
mvc-4999,Zn2AgWO6,0.0
mvc-5004,Ca2CuWO6,0.0
mvc-5009,Mg2AgWO6,0.0
mvc-5017,TiZn2WO6,1.6179000000000001
mvc-5039,Zn2BiWO6,1.8279999999999994
mvc-5040,MnZn2WO6,2.1350000000000002
mvc-5044,Ca2AgWO6,0.0
mvc-5051,Mg2FeWO6,2.5218999999999996
mvc-5060,Ca2TeWO6,0.44150000000000045
mp-638253,EuIn4,0.0
mp-638270,Mn3O4,0.0
mp-638521,Er5Al3Ni3Ge4,0.0
mp-638690,Li2Y5In9,0.0
mp-639135,Pr3RuCl3,0.0
mp-639695,SiO2,5.606199999999999
mp-640286,CeCu4Sn,0.0
mp-640383,Ho5NiSb2,0.0
mp-640563,UCl2O,0.0
mp-640712,Rb8In11,0.0
mp-640791,Nd5Si4,0.0
mp-641,As2S3,2.0877999999999997
mp-641183,Ce4Te3N2,0.0
mp-641353,LiMn2O4,0.0
mp-642293,Y6Te2Pd,0.0
mp-642315,Lu6CuTe2,0.0
mp-642328,U13O34,0.0
mp-642448,Ce2InCuSe5,0.0
mp-642894,UCo5Sn,0.0
mp-643123,K5Ag(NO)2,0.04390000000000001
mp-643577,MnGeO3,1.3075999999999999
mp-645273,Ce10Te19,0.0
mp-645543,Pr3(Ge3Pt2)2,0.0
mp-645630,Dy3(Ge3Pt2)2,0.0
mp-645690,Eu(DySe2)2,0.0
mp-645692,Eu(LuSe2)2,0.0
mp-645707,Yb2EuSe4,0.0
mp-645893,Ce6In14Pt11,0.0
mp-646071,Li(YbGe)4,0.0
mp-646110,Y14(InRh)3,0.0
mp-646125,Y5Mg8Cu5,0.0
mp-646129,RbEuAsS3,0.37539999999999996
mp-646337,Tb2EuSe4,0.0
mp-646548,KEuAsS3,0.492
mp-647075,ZnS,1.9999000000000002
mp-676814,Cr4(Ga2Se5)3,0.0
mp-676815,OsClF8,0.47609999999999997
mp-676818,Sr8(TiS3)7,0.015399999999999636
mp-676880,Ce10US16,0.0
mp-676894,Nb40(NO)17,0.0
mp-676932,SrLiEuTeO6,0.0
mp-676935,Cr10Sb3Te7,0.0
mp-677131,Ce9YO20,0.0
mp-677468,Ba16Tb8Nb5(SnO16)3,0.0
mp-677516,Rb5NO5,0.0
mp-677647,BaSrCuCO4,0.09409999999999963
mp-677724,U8Bi2O19,0.0
mp-680283,Ce9B3C6Br5,0.0
mp-680381,K2Na2Gd4Nb2O13,3.1704999999999997
mp-680383,V17Ge31,0.0
mp-680421,Ce6S4BrN3,0.0
mp-680426,Pu31Pt20,0.0
mp-680451,Sm25Ni49P33,0.0
mp-680500,PtXeF11,0.0
mp-680512,Ce25Ni49P33,0.0
mp-680602,Ce5Rh4,0.0
mp-680655,Zr7Ni10,0.0
mp-680664,U4Ga20Ni11,0.0
mp-680813,SrIn6Cu7,0.0
mp-680850,Ti8S3,0.0
mp-683675,U2MoO8,0.0
mp-683893,HfGe2Rh,0.0
mp-685099,IrSe3,0.0
mp-685100,Cu14I19,0.0
mp-685124,Ni19Se20,0.0
mp-685126,Cu39S20,0.0
mp-685158,Cu16I19,0.0
mp-706446,CsTiH10C4O13,0.0
mp-706447,La2Mg3H48(NO5)12,3.6847000000000003
mp-706448,Mn14Al56Ge3,0.0
mp-707021,Na6H2Pd(S2O7)2,0.0
mp-707176,NaCa2Al2P2H5O11F4,5.4845999999999995
mp-707201,Cu4H10SO12,0.0
mp-707376,NaNb14O36,0.0
mp-707845,K3ZrHS(OF)5,0.0
mp-707891,Zn2P2HNO8,0.0
mp-723406,LaP3H3O10,0.0
mp-762416,Li13Mn8O24,0.0026000000000001577
mp-762417,Li5Mn5O12,0.45500000000000007
mp-762449,Li7Ni13O24,0.0
mp-762457,LiFePO4,3.5928999999999998
mp-762467,Li15Cr2O12,0.0
mp-762480,LiMn3Al2(HO2)6,0.0
mp-762483,LiFe(PO3)4,2.2278000000000002
mp-762486,LiFe(PO3)3,3.6637999999999997
mp-762489,LiMn3Al2(HO2)6,0.0
mp-762490,LiFeP2O7,2.5751999999999997
mp-762491,LiFe(PO3)3,3.9807999999999995
mp-762495,LiFe(PO3)4,2.3449999999999998
mp-762505,Ti3Co3(SbO8)2,0.10679999999999978
mp-762516,Li3Mn3O8,0.0
mp-762519,Li4Fe7(PO4)6,3.0594000000000006
mp-762521,LiMn3Al2(HO2)6,0.28869999999999996
mp-762524,Li4Fe7(PO4)6,2.9981999999999998
mp-762528,Li5Cr5O12,0.0
mp-762537,LiMn6O12,0.0
mp-762588,Li4Mn2Ni5O12,0.0
mp-762612,Li4Mn(Ni2O5)2,0.0
mp-762620,Li2Fe(Si2O5)2,3.2157999999999998
mp-762636,Na3Li4Mn5O9,0.0
mp-762653,LiCo2P4H3O16,0.0
mp-762711,Li2Fe(PO4)2,0.0
mp-762714,Li2FeSi4O11,0.0
mp-762739,Li3Fe5O12,0.0
mp-762761,Li4Fe2Ni5O12,0.0
mp-762788,LiMnP2O7,0.9767999999999999
mp-762790,Li3V4P2O8F9,1.9562000000000002
mp-764109,Mn12O7F17,0.0
mp-764120,Mn12O7F17,0.0
mp-764132,Na3Fe2(PO4)3,2.179
mp-770302,Li24Mn5Cr7O36,1.0553000000000001
mp-770313,Li24Mn5Cr7O36,1.0371000000000001
mp-770317,Li5Mn2P2(CO7)2,0.0
mp-770318,Li5Mn2P2(CO7)2,0.0
mp-770319,Li5Mn2P2(CO7)2,0.0
mp-770338,Li2MnPCO7,0.48429999999999995
mp-770488,CoPbO3,0.0
mp-770511,LiMn3O5,0.0
mp-770614,TlCoO3,0.0
mp-770638,Li2CoH12(SO7)2,3.3284000000000002
mp-770878,Li4Cr3Co5O16,0.0
mp-771172,Li5Cu4(BO3)4,0.0
mp-771195,Na5Ni2As(CO4)4,0.0
mp-771309,Eu2Y2O5,0.0
mp-771378,Li5Mn2P2(CO7)2,0.0
mp-771383,Li5Mn2P2(CO7)2,0.0
mp-771439,Li5Mn3(SbO5)2,0.0
mp-771487,Na5Mn2P(CO4)4,0.005900000000000016
mp-771498,Li4Ti3Fe5O16,0.0
mp-771539,Li4V3Cu3(SbO8)2,0.0
mp-771967,BaLaCl5,3.4008999999999996
mp-772084,Li5Cu6(P2O7)4,0.0
mp-779858,Sm3NbO7,2.7754999999999996
mp-779868,Li10Fe3Co2Ni3O16,0.0
mp-779953,Fe5O7F3,0.0
mp-780010,Ba2GeO4,3.7083000000000004
mp-780084,Fe5O7F3,0.0
mp-780096,LiMn2(BO3)2,0.0
mp-780133,Mn6O7F5,0.0
mp-780171,HgH10N2Cl4O,2.8621999999999996
mp-780186,Li9Mn10O20,0.40090000000000003
mp-780203,Li9(FeO4)2,0.02479999999999999
mp-780220,Na5CuO4,0.05830000000000002
mp-780299,Fe5(O4F)2,0.0
mp-780342,Gd2Zr2O7,3.1542999999999997
mp-780395,Cd(BO2)2,2.901
mp-780421,LaAlO3,4.270499999999999
mp-780434,Fe10O11F9,0.0
mp-780453,Tb4Nb4O11,0.0
mp-780475,Na3(W3O8)4,0.0
mp-780504,Mn6O7F5,0.0
mp-780514,Fe5(O4F)2,0.0
mp-780515,Fe5(O4F)2,0.0
mp-780524,LiMn3(BO3)3,0.007699999999999818
mp-780871,LiFe2(SiO4)2,0.0
mp-8677,ZrTiTe4,0.0
mp-867713,Eu2SiO5,0.0
mp-867936,BaAl2O6,0.0
mp-867973,Zn3(PO6)2,0.0
mp-867981,Mg3(PO6)2,0.0
mp-867984,Pb3NO6,0.0
mp-868302,Li3Co13O16,0.0
mp-977334,LiTi2O4,0.0
mp-9907,SrAs3,0.0
mp-997536,Li3V2(PO4)3,1.8251000000000002
mp-998713,TlInCl3,1.5596999999999999
mvc-10858,Ca3(CoN2)2,0.43510000000000004
mvc-10933,CaLa2Mn2(FeO6)2,0.0
mvc-10959,VBiO5,0.0
mvc-10979,CaCu2(GeO3)4,0.11820000000000008
mvc-5061,Zn2FeWO6,2.4585999999999997
mvc-5073,Mg3Si4(WO7)2,1.9232999999999993
mvc-5074,MgV2O4,1.5331000000000001
mvc-5085,Mg3Fe2(Si2O7)2,2.0401000000000002
mvc-5119,MgCr(SiO3)2,2.1948999999999996
mvc-5127,VZn(SiO3)2,1.5693000000000001
mvc-5130,CaSi2WO6,1.4276999999999997
mvc-5132,MgTi2O4,0.0
mvc-5143,ZnCrO2,0.0
mvc-5150,MgWO2,0.45899999999999963
mvc-5152,Mg(CuO2)2,0.0
mvc-5157,VZnO2,0.0
mvc-5158,Mg(AgO2)2,0.0
mvc-5174,Zn(AgO2)2,0.0
mvc-5175,Ti2ZnO4,0.0
mvc-5176,Zn(CuO2)2,0.0
mvc-5195,Mg3Si4(MoO7)2,1.9463999999999997
mvc-5228,MgMn2O4,0.0
mvc-5230,CaWO2,0.0
mvc-5243,Ca(AgO2)2,0.0
mvc-5273,CaTi2O4,0.0
mvc-5274,Zn(CoO2)2,0.0
mvc-5285,CaCr2O4,0.9702999999999999
mvc-5289,MgW2O5,0.0
mvc-5295,CrO2,0.0
mvc-5296,BiAsO5,0.045599999999999974
mvc-5297,CaCuP2O7,0.0
mvc-5300,Mn2ZnO4,0.0
mvc-5312,CaWO2,0.0
mvc-5313,Zn(SnO2)2,1.0289000000000001
mvc-5345,BiP2O7,0.0
mvc-5359,Ca(SnO2)2,1.5864000000000003
mvc-5383,CaTiAsO5,1.8910999999999998
mvc-5417,TiZnP2O7,0.0
mvc-5422,CaVP2O7,3.1151999999999997
mvc-5456,Mg(NiO2)2,0.0
mvc-5466,CoO2,0.0
mvc-5479,CaSnP2O7,3.6361000000000003
mvc-5546,MgSnP2O7,3.7164999999999995
mvc-5556,VZnP2O7,1.279
mvc-5579,Zn(FeO2)2,1.1383999999999999
mvc-5586,MgCoP2O7,2.9545999999999997
mvc-5592,P2WO7,2.4810999999999996
mvc-5605,MgMnP2O7,3.6608000000000005
mvc-5610,ZnSnP2O7,3.4920999999999998
mvc-5625,ZnP2WO7,0.056700000000000195
mvc-5701,ZnNiP2O7,3.6685999999999996
mvc-5705,Zn(NiO2)2,0.0
mvc-5706,ZnSnAsO5,1.4621999999999997
mvc-5741,Ca(NiO2)2,0.0
mvc-5764,CaMn2O4,0.0
mvc-5770,Ca(CuO2)2,0.0
mvc-5787,Zn(CuO2)2,0.0
mvc-5935,Ca(NiO2)2,0.0
mvc-5944,Zn3Si4(WO7)2,1.9787999999999997
mvc-6200,Ca3Ti3(AsO4)4,0.11699999999999999
mvc-6205,Zn(NiO2)2,0.0
mvc-6226,Zn3Sn3(AsO4)4,1.9742000000000002
mvc-6352,Ti3Zn3(AsO4)4,0.20209999999999972
mp-1002117,TcN,0.0
mp-1006056,PaNi2Ge,0.0
mp-1009217,MnSb,0.0
mp-1020609,Zn2SiO4,2.5427999999999997
mp-1025207,Ti(CrTe2)2,0.0
mp-1038916,MgAl3,0.0
mp-1069983,Al3Ru2,0.0
mp-1077053,CsMnBi,0.0
mp-1078499,Er3(CoGe2)2,0.0
mp-1079107,Co(N3Cl)2,0.0
mp-1093995,ZnAg2SnSe4,0.0
mp-1094213,MgSn2,0.0
mp-1094523,YMg,0.0
mp-1094616,MgGa2,0.0
mp-1094663,MgGa2,0.0
mp-1096943,CuBrO2,0.0
mp-1099086,Mg14FeW,0.0
mp-1099329,CeMg6Ga,0.0
mp-1099724,La5Sm3VCr7O24,1.4174000000000007
mp-1099855,Sr3CaTiMn3O12,0.0
mp-1100744,Li9Mn2Co5O16,0.0
mp-13335,Cd(BO2)2,3.3430999999999997
mp-14561,Ba(SiIr)2,0.0
mp-14769,Ba2Zn3(AsO)2,0.11900000000000022
mp-154,N2,7.340999999999999
mp-17146,K2S5,1.9298999999999997
mp-17158,Ta3Co3C,0.0
mp-17334,Sc2Cr4Si5,0.0
mp-17402,Yb11Sb10,0.0
mp-17696,Ba2VN3,1.3895999999999997
mp-18385,Lu2Si2O7,5.199199999999999
mp-20190,LaZnSn,0.0
mp-20578,Eu(BIr)4,0.03829999999999956
mp-20998,LiCaPb,0.0
mp-21328,HfSn,0.0
mp-21552,Na2GaCuF7,0.0
mp-21686,Ba4UCr2S9,0.0
mp-2206,LuCo2,0.0
mp-22403,Co(C2N3)2,0.0
mp-24161,TiH2,0.0
mp-24513,YH3,0.0
mp-25526,FeP2O7,0.053300000000000014
mp-2570,PuFe2,0.0
mp-28317,NaCu5S3,0.0
mp-2983,Ba(PN2)2,3.9118000000000004
mp-30235,Lu3Ge3Ir2,0.0
mp-30430,Ba10Ga,0.0
mp-31000,NO,0.0
mp-31632,CrP2O7,0.0
mp-34234,Al2NiO4,3.0652999999999997
mp-34761,Ta5N6,0.0
mp-34913,Nd5ErS8,0.0
mp-350,Zr5Te4,0.0
mp-37521,Nd2USe4,0.0
mp-38089,Na10Mn4O9,0.49319999999999986
mp-38816,Mg(TiS2)4,0.0
mp-39739,CaHoMn2O6,0.0
mp-41742,CaNdTiMnO6,0.22529999999999983
mp-4346,SrRuO3,0.0
mp-504341,Sb(PO3)4,0.0
mp-505508,V2Cu2O7,0.0
mp-540430,CrP2O7,0.0
mp-540440,FeP2O7,0.0
mp-540791,Si4Rh3,0.0
mp-541032,Te7As5I,0.30239999999999956
mp-541122,MnFeH4O2F5,1.9457999999999998
mp-542996,Ta6Fe16Si7,0.0
mp-554029,NaMg4V3O12,3.3215999999999997
mp-554495,CaZr(PO4)2,4.330299999999999
mp-556605,ZrO2,3.6906999999999996
mp-557497,Pr2Nb11O30,0.0
mp-565467,Nd(MoO2)6,0.0
mp-565519,V2Cu5(HO3)4,0.19210000000000038
mp-567280,Yb5Bi3,0.0
mp-568286,C,2.0774999999999997
mp-570078,La4MgIr,0.0
mp-570148,Y11(Ni10C)6,0.0
mp-570661,Ta6Co16Si7,0.0
mp-581733,Zr4CuP,0.0
mp-582433,Gd(NiAs)2,0.0
mp-6030,Be3Al2(SiO3)6,5.319500000000001
mp-6312,Sr2CuCO5,0.0
mp-639805,Ta3Ge,0.0
mp-645688,Ce10S19,0.0
mp-6665,Ba4LiW2N7,1.9722999999999997
mp-667198,TiBrO,0.0
mp-667286,Re6Te7Se8,0.9468999999999999
mp-667362,Ce3NCl6,0.0
mp-667448,SiO2,0.9566000000000001
mp-669497,Dy5Cl11,0.0
mp-669516,La10(ErS3)9,0.0
mp-669523,USb2F15,0.10039999999999999
mp-672196,La4B2CI5,0.0
mp-672295,Cu4Bi5PbS11,0.0
mp-672376,Re2Cl7O3,0.31779999999999997
mp-673171,Br,0.0
mp-674187,Ba(IrO3)2,0.0
mp-674423,Sr20Ta8O39,0.0
mp-674968,Ag33(PbO3)14,0.0
mp-675021,Nd16Zr16O49,0.0
mp-675287,CsCuCl3,0.0
mp-677093,Cr(InS2)2,0.0
mp-683940,Ho(FeSn)6,0.0
mp-684503,LiSn(PO3)3,4.206300000000001
mp-685320,Li20B54O,0.0
mp-685341,Bi16Ru16O55,0.05799999999999983
mp-685437,Ca22H51Rh11,0.0
mp-685477,Tc6BiO18,0.0
mp-685514,K7(Mo9S11)4,0.0
mp-685615,Na11N7O16,0.0
mp-685632,Ba7U7O24,0.0
mp-685712,Na2PrO3,0.021999999999999797
mp-685797,Li6Ti9O20,0.0
mp-685819,Yb2TiO5,0.0
mp-685906,Li7(Ga3Te5)8,0.0
mp-685931,Ba20Nb19Se60,0.0
mp-686109,Cu23(Sb4S13)2,0.0
mp-686119,Ag13(BiI4)14,0.0
mp-693432,Ti2H2CSe4Cl16O5,0.006099999999999994
mp-694864,V9NiO15,0.0
mp-694875,Ba2Ca2Zn5Fe3O14,0.22609999999999997
mp-694887,Li9Mn22O48,0.0
mp-6958,TlSb,0.0
mp-696633,Ca10TaTi8Al(SiO5)10,0.0
mp-704967,K5CeNi2(NO2)12,0.0
mp-733898,Mg3B11(H3O8)3,3.8636999999999997
mp-735553,V3P2H12C3N2O15,0.0
mp-735790,Li14Mn22Cr3Cu3O56,0.0
mp-735910,K3Li5Al6Si10(O5F)6,0.0
mp-738741,Sr2La6Mn7CuO24,0.0
mp-743266,CaNdMn2O6,0.0
mp-743675,Ca2Fe2Si5HO15,1.7469999999999999
mp-743681,Sr5La2Mn8(O3F)6,0.0
mp-743745,Ca3La5Mn7CrO24,0.0
mp-743810,CsVZn(PO3)6,0.0043999999999999595
mp-743818,Sr5Nd5Cu(NiO5)4,0.0
mp-743838,Ba4La8Mn11SnO36,0.0
mp-743861,Ca6La2Mn7CrO24,0.0
mp-743863,Ca5La7Mn7Ru5O36,0.0
mp-743880,K4Hf3Mn(PO4)6,3.7631000000000006
mp-755505,Li2NbOF5,3.8937999999999997
mp-758970,K3Ti8O17,0.0
mp-759390,Li3Bi2(PO4)3,3.0810999999999997
mp-759817,Cd3(Pt3O4)10,0.0
mp-759823,LiCuPO4,0.0
mp-759938,Li2Cu3(P2O7)2,0.0
mp-760024,NaTi5O10,0.0
mp-764175,Mn12O5F19,0.0
mp-764197,Mn12O7F17,0.0
mp-764260,Na9Mn21O40,0.0
mp-764297,Na7(WO3)13,0.0
mp-764299,Li2VFe(P2O7)2,1.8138999999999998
mp-764585,Li6MnV3(PO4)6,0.05920000000000014
mp-765296,Li9Fe4(BO3)8,0.0
mp-765350,LaHSe3O10,1.5777999999999999
mp-765380,LiV5F11,2.2479999999999998
mp-766717,Li3V3P8O29,0.9591000000000001
mp-766718,Li3V3P8O29,0.9185000000000001
mp-767372,Cr8Ni50Mo15W2,0.0
mp-769789,LiFe2O3,0.0
mp-772102,Li3MnV(PO4)3,0.0
mp-772116,LaMgI5,2.6292999999999997
mp-772141,Ba2LaI7,2.5892999999999997
mp-772147,LiNb7O12,0.0
mp-773635,Li8Mn2O9,0.0
mp-773673,LiFePO4,3.6117999999999997
mp-773684,Li6V3P8O29,1.3153000000000001
mp-773692,LiFePO4,3.5446999999999997
mp-773695,La16Mn15O48,0.0
mp-773702,Li7Cr2P7O24,2.7108999999999996
mp-773728,Li5V18O44,0.0
mp-773986,LiV9O22,0.0
mp-773992,LiCrPO4,0.9944999999999999
mp-774027,Sr24Fe16O55,0.0
mp-774039,LiMn(SO4)2,0.48690000000000005
mp-774719,Ba4Nb3O12,0.0
mp-775109,Li2TiCo3O8,0.0
mp-775365,Al6H16C5(Cl2O)6,5.515700000000001
mp-775505,Li5V3P8O29,0.9646000000000001
mp-776777,Li4CrCo2Ni3(PO4)6,0.0
mp-776790,BaLi4NiO4,2.6892999999999994
mp-780011,Mn6O7F5,0.0
mp-780324,Co2O3F,0.0
mp-781597,Mn12O5F19,0.0
mp-781623,LiMn2(BO3)2,0.10670000000000002
mp-781789,Li4NbIn3(PO4)6,2.6893000000000002
mp-782105,Na3SbH30S3N10,2.7218999999999998
mp-7888,Sr2HoReO6,0.0
mp-849981,Co3(OF2)2,0.0
mp-849996,Li3Mn2(P2O7)2,0.11080000000000001
mp-851070,Li3V3P8O29,1.1945999999999999
mp-851105,Li2Cu2(SO4)3,0.0
mp-851127,Cu2(SO4)3,0.0
mp-861640,Ti2AlRe,0.0
mp-861658,LiMnPt2,0.0
mp-865401,Tm2ZnTc,0.0
mp-865512,YMgCd2,0.0
mp-865925,LiZrIr2,0.0
mp-865933,LiSiIr2,0.0
mp-867213,Er2OsPd,0.0
mp-867224,CaNdCd2,0.0
mp-867353,ThCdAu2,0.0
mp-867372,ThCdAg2,0.0
mp-9209,In2(SO4)3,3.6946000000000003
mp-93,U,0.0
mp-958,Cr3Rh,0.0
mp-972380,Tb3ReB7,0.0
mp-974966,Rb3Lu,0.0
mp-975142,RhI,0.0
mp-976055,Li3In,0.0
mp-978509,Si3Ru,0.0
mp-982558,HoGeO3,0.0
mp-982596,TbSc,0.0
mp-982773,Na3Tl,0.0
mp-982779,NbTe,0.0
mp-9828,YbPPt,0.0
mp-982872,Hg,0.0
mp-985290,BaCe,0.0
mp-989651,HfTeSe4,0.9630000000000001
mvc-13742,VS2,0.0
mvc-15827,MgTiF5,0.21399999999999997
mvc-5236,SnO2,0.0
mvc-5669,Ca(CuO2)2,0.15200000000000014
mvc-8414,MgCrNiP2O9,0.44110000000000005
mp-1005755,SmGe2Pt,0.0
mp-1005789,Sm2(Ga3Co)3,0.0
mp-1006574,Rb(Zr3Te4)4,0.0
mp-1006594,Ta36B4C35,0.0
mp-1006619,Sn3PO6,0.0
mp-1007881,FeB,0.0
mp-1012668,LiMo2P2O9,1.7609000000000001
mp-1012670,Na3Ti2(GeO4)3,0.0
mp-1012789,LiCr3P3O13,0.09060000000000001
mp-1012791,NaV3P3O13,1.4265999999999999
mp-1012865,LiTi3P3O13,0.0
mp-1013599,Na2CoP2O7,2.3951000000000002
mp-1013843,NaMo2P2O9,1.7517000000000003
mp-1016071,Cr3N4,0.0
mp-1016073,CrN2,0.0
mp-1016081,CrN2,0.0
mp-1019523,Ba3NaY3(Si3O10)2,4.6895999999999995
mp-1022221,BaMg6Co,0.0
mp-1022318,CeMg6Fe,0.0
mp-1022387,BaMg6Fe,0.0
mp-1022489,Mg6ZrC,0.0
mp-1022493,Mg6ZrB,0.0
mp-1022494,SrMg6Zr,0.0
mp-1022517,RbMg6Zr,0.0
mp-1022553,Mg6ZrC,0.0
mp-1022554,RbMg6Zr,0.0
mp-1022583,KMg6Zr,0.0
mp-1022622,BaMg6Zn,0.0
mp-1022656,Mg6ZnB,0.0
mp-1028405,Mg14CoC,0.0
mp-1040459,NaFe3P3O13,0.0
mp-1043005,CaBi2O5,0.0
mp-1043895,CaLaCrFeO6,0.0
mp-1048666,Ca3(TiS2)8,0.0
mp-10602,Sm3GaC,0.0
mp-10692,CoGe,0.0
mp-1173991,Li3Mn2O5,0.47260000000000035
mp-1183199,AcTlRh2,0.0
mp-1184427,Gd2AlZn,0.0
mp-1186697,Pr2TlIn,0.0
mp-1186788,Ta2Mo2O5,0.0
mp-1186816,Pt2Rh2O5,0.0
mp-1186926,Ru3Rh,0.0
mp-1186955,Sc2NiPd,0.0
mp-1187038,Sn3S,0.0
mp-1187127,Sr3La,0.0
mp-1187621,TlWO3,0.0
mp-1187827,TlIn3,0.0
mp-1188677,YbGe2Pt,0.0
mp-1191153,Lu2Co12P7,0.0
mp-1192140,Gd3(SiNi3)2,0.0
mp-1201911,Tb5Zr3(Ni4As3)4,0.0
mp-1205979,SmMgAu,0.0
mp-1206595,LiTiSe2,0.0
mp-1210983,Na3MnP8O23,0.0
mp-1219509,ReOs,0.0
mp-1219720,PtSeS,0.49709999999999965
mp-1222194,Mn29H2,0.0
mp-1222493,Li5(YSb2)2,0.0
mp-1222844,LaPr3Al4O12,3.9003000000000005
mp-1226796,Ce2ZnSb4,0.0
mp-1228046,BaFeCuPb2ClO5,0.0
mp-1228498,Ba2Sr(PO4)2,5.414899999999999
mp-1239268,NbCr3(CuS4)2,0.0
mp-1387,AlV3,0.0
mp-20861,CrGe,0.0
mp-31725,CrBrO,1.4343000000000001
mp-600096,SiO2,6.145300000000001
mp-600216,U2Se3,0.0
mp-600449,DyCuSb2,0.0
mp-603081,EuTl(MoO4)2,0.0
mp-603576,Sc5(In2Ni)2,0.0
mp-605333,In2Cu2O5,0.0
mp-605350,RbPbF3,4.294499999999999
mp-605786,Eu2BrO2,0.0
mp-605809,Ba11In6O3,0.0
mp-606121,Ce2Bi5Rh3,0.0
mp-606149,SrGd2Co2O7,0.0
mp-606675,MnGaNi2,0.0
mp-606703,Ce4(GeS4)3,0.0
mp-606777,Eu(InAu)3,0.0
mp-607044,Eu(ScSe2)2,0.0
mp-607124,Dy5(In2Ni)2,0.0
mp-607126,Nd(In2Au)2,0.0
mp-607514,Pr(In2Au)2,0.0
mp-607990,Hf2Co3Si4,0.0
mp-608031,NaNpCO5,0.05830000000000002
mp-608100,S,0.3093999999999999
mp-608239,Cu8Ge5C4(S2N)8,0.0
mp-608321,Eu3As4,0.0
mp-608468,ZnS,1.9806000000000001
mp-608595,NaBrO3,0.07530000000000003
mp-610190,Zr9(In2Co)7,0.0
mp-611224,VS2,0.0
mp-612175,Eu3(AsPd)4,0.0
mp-612946,KTeOF3,3.9955000000000003
mp-613206,EuGe2Ir,0.0
mp-613677,GdMnGe,0.0
mp-613838,Eu(MgGe)3,0.0
mp-614311,CsCSN,4.480099999999999
mp-615760,Ba5(InSb3)2,0.0
mp-615776,CsYb3F10,0.0
mp-615820,Pu2Pt,0.0
mp-616471,Ba2Eu2Ti2Cu2O11,0.0
mp-616541,Ru(CO)4,1.9665000000000001
mp-616958,Nd2Fe14B,0.0
mp-617247,Cu2BiPO6,0.0
mp-617298,CsUTiTe5,0.0
mp-617312,Sm3Si2Ni,0.0
mp-617407,Na2EuCl5,0.0
mp-618375,Ag4Te(NO3)2,0.0
mp-619100,LiEuTiO4,0.0
mp-619747,Na3GdBr6,2.1856999999999998
mp-621024,Gd6C3Cl5,0.0
mp-621619,Gd3(CuGe)4,0.0
mp-621921,K3Fe(CN)6,0.0
mp-647282,KEu(MoO4)2,0.0
mp-753593,Ti10O13,0.0
mp-753614,Fe(PS3)2,0.0
mp-753627,LiTiP2O7,0.10190000000000055
mp-753632,Li2CrS3,0.0
mp-753650,BaLaCl5,3.4181999999999997
mp-755091,Ti2Cu3Te3O16,0.0
mp-755104,Ba2YCl7,3.9883999999999995
mp-755115,CuReO4,0.43679999999999986
mp-755148,CuSb(PO4)2,0.0
mp-755206,Ca2Ti6N2O11,1.9882999999999997
mp-755255,Cu3OF5,0.0
mp-755349,Cu3OF5,0.0
mp-755362,Sm2Se2O,2.0938999999999997
mp-755363,Ba3SiO,0.42169999999999996
mp-755373,Lu2GeO5,3.4948000000000006
mp-762164,Li4Nb2Co3Ni3O16,0.0
mp-762165,Li3(NiO2)5,0.0
mp-762169,Li4Co3Ni3(SbO8)2,0.0
mp-762172,Co2Ni3Sb(PO4)6,0.0
mp-764468,Li2Mn2F7,0.11670000000000003
mp-764479,VOF2,1.1419000000000001
mp-764755,NaV4O10,0.0
mp-764763,Li7Mn4O12,0.0
mp-764765,Li4Nb3Ni3(SbO8)2,0.0
mp-764782,Na5WO5,0.0
mp-764787,LiVOF3,1.8346999999999998
mp-764790,Li2FeSiO4,3.1210999999999993
mp-764793,Li2Mn4OF8,2.1717999999999997
mp-764801,Li2Cu5F12,0.0
mp-764813,FeOF,0.0
mp-764825,MnOF,0.07509999999999994
mp-764840,V2(OF)3,0.11430000000000001
mp-764849,Li8Fe(O2F)2,2.9017999999999997
mp-764855,Na2Fe2O5,0.0
mp-764861,Li2Mn2F7,0.45840000000000003
mp-764866,FeOF,0.05929999999999991
mp-764871,V2Fe3Te(PO4)6,0.0
mp-764883,Fe4O7F,0.0
mp-769317,Ca4Ta2O9,3.9210999999999996
mp-769329,RbLi2B3Sb2O9,2.6207999999999996
mp-769345,Ho3ReO8,1.7189000000000005
mp-769347,MgSO3,5.024900000000001
mp-769420,LiCr2(PO4)2,0.0
mp-769424,Li5Fe6(BO3)6,0.0
mp-769426,LiCo2(PO4)2,0.34020000000000006
mp-769427,Li5Fe6(BO3)6,1.6005000000000003
mp-769441,Li4Ti4Mn(Co2O9)2,0.11970000000000036
mp-769443,Li4Ti4Mn(Fe2O9)2,1.0258000000000003
mp-769456,Na5Fe2P2(CO7)2,1.0839999999999999
mp-769471,Fe3Co2P6WO24,0.006400000000000183