task_id,pretty_formula,band_gap
mp-672262,La3Zn3Ge2SbO14,2.9454000000000002
mp-672688,YbSeClO3,0.0
mp-672945,BiP2O7,0.0
mp-672981,BiP2O7,0.0
mp-672984,LiCu(PO3)4,0.0
mp-673059,LiSbP2O7,3.933
mp-706640,CaAl2Si4(H2O7)2,0.10980000000000001
mp-706653,H8S2N2O5,3.351
mp-706805,Sr4Mn2CoO9,0.0
mp-706910,MgB2H6O7,5.412599999999999
mp-706921,H2RhN2Cl5O,0.0
mp-707138,Ag2PHO4,1.3237999999999999
mp-707190,K2SnBr6,1.5756999999999999
mp-707195,KSiHO3,4.768199999999999
mp-755856,Mg2SnO4,2.6408999999999994
mp-755868,LiCu5(PO4)2,0.48829999999999973
mp-755875,Ti3O4,0.0
mp-755894,Li2O,5.2421999999999995
mp-755915,Li4Nb3TeO12,0.0
mp-755920,Ti3NO4,0.0
mp-755928,Cu2O3,0.0
mp-755933,Li2Fe3S4,0.0
mp-755947,Li3(CrS2)4,0.0
mp-755974,Na2CuO2,0.0
mp-755985,Eu3ReO8,0.0
mp-756013,PrSiO4,0.0
mp-756029,Zr2N2O,2.0128999999999997
mp-756035,LiTi4O8,0.0
mp-756074,Bi2PO6,0.0
mp-756076,TbTaO4,3.6704000000000003
mp-756093,Na12NbO7,0.0
mp-756095,NaCu3O4,0.0
mp-756096,Hf2N2O,2.4564999999999997
mp-756098,BaSrI4,3.6125999999999996
mp-756104,Ge11N11O5,0.0
mp-756137,Li3Nb6O11,0.0
mp-756166,LaHoO3,4.3854999999999995
mp-756170,Sr3LiTa4(O6F)2,0.0
mp-756176,Li2CrS3,0.0
mp-756187,Li2FeS2,0.16339999999999977
mp-762684,Li2Ti(FeO3)2,1.7930000000000001
mp-762690,Li7FeP4O14F,3.9177999999999997
mp-762692,Li5Fe11O16,0.36409999999999965
mp-762693,Li3TiFe3O8,2.1109999999999998
mp-762699,Li5MnP2(O4F)2,1.6278000000000001
mp-762708,Li7MnP4O14F,3.9907000000000004
mp-762709,LiTiFe2O5,1.5007000000000001
mp-762710,Li3VFe3O8,1.384
mp-762754,Li2Fe2NiO6,0.0
mp-762758,Li4Ti2Fe3O10,1.4487999999999999
mp-762767,Li3Fe(Ni2O5)2,0.0
mp-762771,Li3Fe5(NiO6)2,0.22699999999999987
mp-762774,LiMnPO4F,0.9674999999999999
mp-762777,Li3Fe2Ni3O10,0.0
mp-762778,Li3FeNi3O8,0.0
mp-762792,LiVF5,2.2276000000000002
mp-762795,LiFeNiO4,0.0
mp-765664,Na5V12O32,0.0
mp-765667,Li4Co7(OF7)2,1.9331999999999998
mp-765669,Li7Mn3Co3O16,0.08190000000000008
mp-765670,Na4Ni3O7,0.0
mp-765678,Li3TiV3O8,1.509
mp-765680,CoOF,0.0
mp-765681,Co2O3F,0.0
mp-765684,Na5Mn11O24,0.0
mp-765687,VOF,1.2551999999999999
mp-765691,Mn6O5F7,0.0
mp-765697,Li2TiFeO4,0.9123999999999999
mp-765698,Mn6O11F,0.0
mp-765699,Li3Fe(PO4)2,2.4322999999999997
mp-765703,NaMn3O4,0.0
mp-765704,Li4Fe3Cu2Sb3O16,0.0
mp-765705,NaV5O8,0.0
mp-765706,Li2VFeO4,0.9488000000000003
mp-765707,Mn6O11F,0.0
mp-769694,Li2FePCO7,2.3352999999999997
mp-769697,Co2HgO4,0.0
mp-769704,Li3MnPCO7,3.7565999999999997
mp-769707,Li2CoCu(PO4)2,0.0
mp-769708,Li3MnPCO7,3.6578999999999997
mp-769709,Mn2InO5,0.0
mp-769723,Li2MnCo(PO4)2,2.4608999999999996
mp-769727,Li3(NiO2)4,0.24839999999999973
mp-769730,Li4V2Cr3Ni3O16,0.0
mp-769732,Li3Cr(BO3)2,2.0740999999999996
mp-769733,LiMn7O12,0.0
mp-769742,Li4CrFe3O8,1.7147999999999999
mp-769745,Li4Fe5Sn3O16,0.0
mp-769748,Li4Ni5BiO12,0.0
mp-769749,Li2Cr3SnO8,0.0
mp-769760,Li2AlCoO4,1.772
mp-769761,Mn(Cu3O4)2,0.0
mp-769781,Li4Cr5BiO12,0.0
mp-772678,NaCoAsCO7,0.0
mp-772680,Li4Co5NiO12,0.0
mp-772682,Dy2W2O9,3.1433999999999997
mp-772685,CrPO5,0.21799999999999997
mp-772686,Ga2(WO4)3,4.2204999999999995
mp-772691,Na2VSiCO7,1.9188999999999998
mp-772694,Li2FeSn(PO4)2,3.1064999999999996
mp-772697,Li3Co4CuO8,0.0
mp-772698,Li4Mn5NbO12,0.0
mp-772699,Li4Mn5FeO12,0.0
mp-772701,Li3Fe(SbO3)4,0.0
mp-772703,Li4CoNi5O12,0.18840000000000012
mp-772705,Li5Nb2Fe5O12,0.0
mp-772711,Na3SiBiBO7,0.0
mp-772722,Na3CuBAsO7,0.0
mp-772725,Li4Fe3TeO12,0.0
mp-772739,Fe2CoO6,0.0
mp-772744,Tm2P4O13,5.369199999999999
mp-772748,Ba2P6O17,5.254700000000001
mp-772749,Ti17(NO4)6,0.0051000000000005485
mp-772758,Sm2Zr2O7,3.9633999999999996
mp-772777,K3SrPCO7,4.153499999999999
mp-772781,Lu2B4O9,5.7802999999999995
mp-772783,Li2Mg3Ti6O16,3.288
mp-772787,Gd2P4O13,3.2969999999999997
mp-772799,K2SnPCO7,0.0
mp-777058,LiV6O7F5,0.9873000000000003
mp-777062,Li4Fe3Co3(CuO8)2,0.0
mp-777067,Li2MnP2O7,3.1414999999999997
mp-777082,TiNi3Sn2(PO4)6,1.9098000000000002
mp-777084,LiV2OF5,1.5573000000000001
mp-777088,LiV2OF5,1.8394999999999997
mp-777089,LiV6O7F5,1.0025999999999997
mp-777094,Li3LaNiO4,2.6290999999999998
mp-777097,CrAgO4,0.0
mp-777099,LiMnOF2,0.9907999999999999
mp-777100,VOF3,1.8410999999999997
mp-777101,Co2O3F,0.0
mp-777102,Mn3O5F,0.0
mp-777141,Li6V2C4SO16,3.0542999999999996
mp-777146,CdFeO3,0.0
mp-777147,Li4CrTe(WO6)2,0.0
mp-777148,Li4Ni3Sn2Sb3O16,0.0
mp-777152,Li3Co2(GeO4)2,0.0
mp-849752,Li4Cu3Sn(PO4)4,0.0
mp-849772,LiTi3Nb(CuO4)3,0.0
mp-849803,Li2Ni2S3,0.0
mp-849934,MnOF,0.0
mp-849935,Mn2O3F,0.0
mp-849967,Mn4O7F,0.0
mp-849977,Mn2O3F,0.0
mp-849978,Mn6O7F5,0.0
mp-849982,Ta2CrNO5,1.3552999999999997
mp-849985,Co3(OF2)2,0.0
mp-850016,Fe3S4,0.0
mp-850032,Fe3S4,0.0
mp-850049,CoS2,0.0
mp-850062,LiNiO2,0.0
mp-850064,Mn4O7F,0.0
mp-850065,Mn3O5F,0.0
mp-850067,Ti3Mn2Co(PO4)6,0.0
mp-850068,NiS2,0.0
mp-850073,Li5Mn6(BO3)6,0.0
mp-850074,Na3MnO3,0.9898999999999999
mp-850077,LiMn2(BO3)2,0.30310000000000015
mp-850078,Co6O7F5,0.0
mp-850088,Co6O7F5,0.0
mp-619475,RbFeF4,2.8768000000000002
mp-619486,Rb2Hg(CN)4,5.747999999999999
mp-619501,U2Te3,0.0
mp-619571,ScU8S17,0.0
mp-619905,Ti9Se2,0.0
mp-620029,MoCl2,2.4547999999999996
mp-620032,Ti2Se,0.0
mp-620290,Sr2TlCuO5,0.0
mp-620364,CaSmCuClO3,0.0
mp-620571,CaInPd,0.0
mp-620812,Y2Ge5Ru3,0.0
mp-620862,LiTl3(MoO4)2,3.8133000000000004
mp-621092,Tl2Pt(CN)4,2.5584000000000002
mp-621112,Cs5Nb2S4Cl9,1.7853999999999999
mp-621132,PrInAu,0.0
mp-621176,YInAu,0.0
mp-621581,P3Rh4,0.0
mp-621612,AgPb2Br5,1.9373999999999998
mp-621667,Eu3Ag2,0.0
mp-621730,Cs2NaCoF6,0.0
mp-621852,La2Ge5Ru3,0.0
mp-621928,LiEu(SO4)2,0.0
mp-622009,TaNi2TeSe,0.0
mp-622018,BAs5(Pb3O10)2,2.9515999999999996
mp-673071,Li2SnP2O7,3.7003000000000004
mp-673168,SiO2,3.3914999999999997
mp-673644,Tb2S3,1.8720999999999997
mp-673761,Gd5(RuO7)2,0.0
mp-673846,La2CuO4,0.0
mp-674333,Na3PO4,3.9098999999999995
mp-674366,Tl3SiF7,3.6851999999999996
mp-674465,K2SrCl4,4.988099999999999
mp-674492,Na2U2O7,1.5831999999999997
mp-674508,RbPbF3,3.7914999999999996
mp-674522,K6U4O15,1.3949000000000003
mp-707324,PH6SN3,4.177700000000001
mp-707508,Na2H5RuN5O12,2.0896999999999997
mp-756188,LiCu3O4,0.0
mp-756195,Li2(VS2)3,0.0
mp-756214,YAlO3,4.958600000000001
mp-756216,EuSeO4,0.0
mp-756228,SrLaCl5,3.7379999999999995
mp-756229,Na(SnO2)2,0.0
mp-756238,Sr2CaI6,3.9625999999999997
mp-756286,La3Ce4O12,0.0
mp-756290,TbGaO3,3.6355999999999997
mp-756294,Li2Ti2O5,3.7434000000000003
mp-756296,ErTiO3,0.0
mp-756306,Li5Zn4(BO3)4,0.0
mp-756323,Li2CuAsO4,1.2786999999999997
mp-756336,CaEu2O3,0.0
mp-756347,Y2Pt2O7,1.4572000000000003
mp-756348,Li2FeS2,0.0
mp-756350,TiNbO4,0.0
mp-756372,Rb2MgO2,2.2798999999999996
mp-756376,Li3Nb4ZnO12,0.0
mp-756392,LiCuSi2O5,1.9425999999999997
mp-756393,Er2Nb2O7,0.0
mp-756426,ZrNbO4,0.0
mp-756443,Er2TiO5,3.0241999999999996
mp-756457,ErNbO4,3.4705999999999997
mp-756469,DyLuO3,4.6339999999999995
mp-756489,Li6FeS4,0.0
mp-756495,Li3CuO2,2.554
mp-756515,Li4Nb(TeO4)3,0.0
mp-756517,Na3CuBPO7,0.0
mp-756519,Li(ReO3)4,0.0
mp-756522,CuTe(PO4)2,0.0
mp-756531,LiNd6(CuO6)2,0.0
mp-762800,Li4VF7,0.0
mp-762801,Li2MnPO5,1.404
mp-762802,Li2Fe3NiO8,0.0
mp-762806,Li2V2FeO6,0.19430000000000014
mp-762811,Li2Ti2Mn3O10,0.0
mp-762821,Li3Ti3VO8,0.0
mp-762822,Li2FeNi3O8,0.0
mp-762829,LiMn3NiO8,0.11060000000000025
mp-762830,Li4Mn2Nb3V3O16,0.0
mp-762834,LiTi2Co3O10,0.18979999999999997
mp-762835,Li2Mn(FeO3)2,0.9044000000000003
mp-762838,Fe4O5F3,0.24609999999999999
mp-762839,LiFe4(PO4)3,3.1315999999999997
mp-762843,LiFeP2O7,1.9497000000000002
mp-762845,Li4Mn2Si4O13,1.3294000000000001
mp-762855,Li8Fe3Ni7O20,0.0
mp-762856,Li2Fe(PO4)2,0.0
mp-762857,LiFePO5,0.0
mp-762881,Li3Mn(PO4)2,0.0
mp-762885,Na5CrHO4,0.06890000000000018
mp-762886,LiCoSiO4,1.3740999999999999
mp-765712,Li4FeNi3O8,0.0
mp-765713,Li8Co(O2F)2,2.2083999999999997
mp-765720,Li3Co2O2F3,0.0
mp-765722,Li4Mn3NiO8,0.20429999999999993
mp-765723,Na3Li6Mn5O9,0.0
mp-765726,Mn2OF3,0.0
mp-765731,Mn3OF5,0.0
mp-765733,Mn4O7F,0.0
mp-765736,NaNi5O6,0.0
mp-765741,Li4Mn2V3Sb3O16,0.0
mp-765743,Li2CrFeO4,1.6024000000000003
mp-765744,Mn4O7F,0.0
mp-765746,Li2MnCu3O8,0.0
mp-765751,Mn2O3F,0.0
mp-765754,Li4Ti3Cr3(TeO8)2,0.31730000000000036
mp-765759,Li5MnO3F,2.0827999999999998
mp-765763,Cr(SO4)2,0.0
mp-765766,Na11Mn13O32,0.0
mp-765776,V3CrSb2(PO4)6,0.0
mp-765780,LiV2OF5,1.8039999999999998
mp-765782,VF5,3.1935000000000002
mp-765786,Li2CoNiO4,0.0
mp-765789,Li2NiOF2,2.1820999999999997
mp-769792,Li4Fe5CoO12,0.0
mp-769795,Li3Cr(CoO2)4,0.0
mp-769796,Li3Fe4NiO8,1.1938999999999997
mp-769798,Li4Mn5SnO12,0.0013000000000000789
mp-769800,SrEu4O5,0.0
mp-769804,Li3Cr(CuO2)4,0.0
mp-769805,Li5Co5(SnO6)2,0.0
mp-769810,Sr3WO6,3.5803999999999996
mp-769819,La6WO12,3.4627999999999997
mp-769820,Li4Ni3BiO8,0.0
mp-769822,Li4Fe5SnO12,0.0
mp-769825,LiFeBO3,2.8956999999999997
mp-769828,LiCoBO3,2.6172999999999993
mp-769829,Li5V2Ni5O12,1.2227000000000001
mp-769834,Eu2Mn2O7,0.0
mp-769840,CoPO4,0.9818999999999999
mp-769847,Li(CoO2)2,0.0
mp-769848,Li4Mn5Sb3O16,0.0
mp-769851,ScCrO4,0.0
mp-769853,Cr(SbO3)2,0.0
mp-769858,Li4Mn3V2Cu3O16,0.0
mp-769859,Li4Mn5Ni3O16,0.0
mp-769860,Li2Co3NiO8,0.9328000000000003
mp-769865,VCr2O4,0.0
mp-772820,SrLu2O4,3.8741000000000003
mp-772822,Li3Cu3TeO8,0.0
mp-772826,K2LiTi2(AsO5)2,0.0
mp-772833,Y2HfO5,3.9515000000000002
mp-772838,Er(ReO4)3,3.8063000000000002
mp-772843,KSiPCO7,5.168
mp-772856,CuHgO2,0.0
mp-772867,La2Bi2O7,0.0
mp-772899,Li3ZrO3,0.0
mp-772900,Sm2TeO6,3.0345999999999997
mp-772910,Bi3IO4,2.3630999999999998
mp-772997,Li8Ti7Nb6O30,0.0
mp-773007,LiCu5(PO4)2,0.26560000000000006
mp-773011,Dy2Ge2O7,3.5622999999999996
mp-773016,Lu2P4O13,5.344
mp-773030,ScP2O7,0.0
mp-773046,Mg4Sc3(SiO3)8,0.0
mp-773049,K3LiNb6O15,0.0
mp-773055,Li3Mg3Ti6O16,0.0
mp-773072,Ba8LiNb7O24,0.0
mp-777153,Li2Fe2NiO6,0.0
mp-777183,TiMn3Cr2(PO4)6,0.0
mp-777194,Li2MnVP2(O4F)2,0.36660000000000004
mp-777195,LiFe7(O3F5)2,1.4412000000000003
mp-777196,LiV4OF11,0.9825999999999999
mp-777200,Li2MnPO4F,3.6683000000000003
mp-777202,Na3V2(PO4)3,1.9184999999999999
mp-777215,Mn4O7F,0.0
mp-777216,Cr2Fe3Te(PO4)6,0.0
mp-777238,Mn8O13F3,0.0
mp-777239,Mn3(O2F)2,0.10400000000000009
mp-777248,LiFeF3,3.0058000000000002
mp-777253,Li6Fe2O5F2,1.9382000000000001
mp-777254,Li9Y(NiO4)2,2.684
mp-777258,Ba3YF9,6.227799999999999
mp-777259,Ti3Cr2Sb(PO4)6,0.0
mp-777268,Na(BiO2)2,0.0
mp-777276,VCr2Fe3(PO4)6,0.0
mp-777280,Li3Mn(NiO3)2,0.0
mp-850090,Fe10O9F11,0.0
mp-850096,LiMn3(BO3)3,0.0
mp-850106,Li3(NiO2)4,0.030100000000000016
mp-850107,LiMnO2,0.0
mp-850112,LiMn2(PO4)2,0.42890000000000006
mp-850115,Li4Ni2P4H3O16,0.0
mp-850118,Cr(PO3)2,2.1595999999999997
mp-850119,Li3FePCO7,3.9590999999999994
mp-850131,NiS2,0.0
mp-850137,CrAgO4,0.0
mp-850138,LiMnP2O7,0.46160000000000023
mp-850139,LiCo3OF5,2.6376999999999997
mp-850140,NaLi3Ti2Fe2(PO4)6,2.4482999999999997
mp-850162,Mn8O13F3,0.0
mp-850164,Li4Co3Ni3(SnO8)2,0.0
mp-850166,Li5Mn6(BO3)6,0.18179999999999996
mp-850170,Li3Fe9O5F11,1.9446999999999999
mp-850174,Li4Cu2Ni5O12,0.10309999999999997
mp-850179,Li2Mn3(BO3)3,0.0
mp-850186,Li4Mn2Co3Sn3O16,0.0
mp-850193,HoBO3,5.367
mp-850213,Yb4Br6O,4.251799999999999
mp-850220,Si6BiO14,0.0
mp-850224,Li7Mn(PO4)4,0.0
mp-622106,Ba5Pb3,0.0
mp-622108,Ba2TmCu3O7,0.0
mp-622110,Ba2ErCu3O7,0.0
mp-622115,K3V3(BiO6)2,2.9294000000000002
mp-622203,BaMnGaF7,3.624
mp-622209,Al3Ni,0.0
mp-622210,Ba2LaCu3O7,0.0
mp-622268,Ba2ZnAg2(SeO)2,1.0540000000000003
mp-622565,Ho3Co,0.0
mp-622570,Ti2Cu3,0.0
mp-622618,BaLaNiRuO6,0.0
mp-622633,Nb6Co7,0.0
mp-622848,Sm2Ga9Ru5,0.0
mp-623012,CuTe,0.0
mp-623038,Nb5As3,0.0
mp-675073,Na4PtO4,0.0
mp-675127,FeSbO4,1.0037000000000003
mp-675152,NdPb8F19,3.5795999999999997
mp-675192,Ce3Dy2O9,1.8935999999999997
mp-675214,Rb2Bi3F11,3.8503000000000003
mp-675215,Mg2SiO4,3.4299999999999997
mp-675219,Ba9(LaS6)2,2.2417999999999996
mp-675231,Y2Zr9O22,0.0
mp-675250,KBi2F7,3.581
mp-675266,Ca3(HO3)2,2.9048999999999996
mp-675295,InPF3,1.2411999999999999
mp-675363,Nd12Si5Se28,0.0
mp-675374,Al2PbSe4,1.9961000000000002
mp-675445,Sr(YbS2)2,0.0
mp-675464,CdIn2O4,0.000700000000000145
mp-707838,Ca3Be2P4(HO2)10,5.319100000000001
mp-707839,SiH14(O2F3)2,6.9742999999999995
mp-707841,PH6NO3,6.286099999999999
mp-707976,KH2SeNO3,3.6477000000000004
mp-708961,BeH8SeO8,3.9964000000000004
mp-756541,K6YO4,0.0
mp-756550,TmAsO4,3.5775000000000006
mp-756554,Li4Cu3TeO8,0.0
mp-756557,LiY4Ti4(S2O5)2,0.0
mp-756628,Li4NbO4,0.0
mp-756631,Nb2P2O9,0.0
mp-756637,Ba3GeO5,2.5961999999999996
mp-756690,EuAgO2,0.0
mp-756698,Gd(BiO2)4,0.0
mp-756704,LuTa3O9,3.3026999999999997
mp-756708,CaPrO3,0.0
mp-756718,Li4Bi2O5,2.6845999999999997
mp-756722,YbPrO2,0.0
mp-756724,Lu2Nb2O7,0.0
mp-756751,Tm2Nb2O7,0.0
mp-756762,TbTmO3,4.568899999999999
mp-756770,UNb6O16,0.0
mp-756781,Sr3Li2Nb4O13,0.0
mp-756784,LiSbS2,0.0
mp-756795,Rb3PbO3,0.11729999999999974
mp-756798,Sr2CaI6,3.8712000000000004
mp-756799,Ti2Nb2(CuO4)3,0.0
mp-756817,Li5Cu5(SbO6)2,0.0
mp-756837,Ca4Zr3TaO12,0.0
mp-756850,LuAlO3,3.7125000000000004
mp-756861,LiLa4Ti3O12,0.0
mp-756867,LiCuBO3,0.0
mp-756869,K2TbO3,0.0
mp-756876,K3BaPCO7,3.9055999999999997
mp-756878,NaYbO2,0.0
mp-762902,Li2(NiO2)3,0.31079999999999997
mp-763181,LiCrCo3O8,0.0
mp-763185,Li2CrCo3O8,0.40080000000000005
mp-763186,Li2Mn3SbO8,1.0902000000000003
mp-763187,Li2Mn3F8,3.3569999999999998
mp-763201,V6O7F5,0.0
mp-763204,MnOF,0.0
mp-763211,V3O5F,0.22670000000000012
mp-763219,FeOF,0.43809999999999993
mp-763221,FeOF,0.39060000000000006
mp-763222,NbFe3Co2(PO4)6,0.0
mp-763225,Li2VO2F,0.27300000000000013
mp-763229,VOF,0.9420999999999995
mp-763236,Co6O5F7,0.0
mp-763237,Li2Fe2P4H3O16,0.0
mp-763238,Li2Cr2P4H3O16,0.0
mp-763248,V4FeO12,0.0
mp-763254,Na2Li2CoO4,1.2410999999999999
mp-765804,Li6VF8,3.5201000000000002
mp-765805,Li4Fe3Cu3(WO8)2,0.0
mp-765811,Li4Ni3Sn(PO4)4,1.9586999999999994
mp-765812,TiVO3,0.0
mp-765813,Li2FeNiO4,0.0
mp-765814,LiNi4O4F,2.2405999999999997
mp-765815,CoSnO3,0.9832000000000001
mp-765820,Li2V2F7,0.0
mp-765823,Co3WO8,0.0
mp-765825,V2CoO4,0.0
mp-765833,Li6Fe5NiO12,0.0
mp-765838,Fe(CoO3)2,0.0
mp-765839,CoRe2(H2O3)4,2.9871999999999996
mp-765845,LiVF3,2.2312999999999996
mp-765850,NaV2O5,0.9284999999999999
mp-765857,LiCr(SiO3)2,2.9516999999999998
mp-765866,Co3NiO8,0.0
mp-765871,LiMnPO4,3.2177000000000002
mp-769872,Ti2Mn3Te3O16,0.0
mp-769874,Li2TiVO4,0.0
mp-769877,Li7Nb2Fe3O16,0.0
mp-769879,LiVOF3,1.8377999999999999
mp-769882,Co(NiO2)2,0.0
mp-769883,MnTlO3,0.0
mp-769884,Li2Fe3CoO8,0.0
mp-769887,NbVO5,1.7852999999999999
mp-769890,NbVO5,1.8902999999999999
mp-769892,Li4Mn3Co5O16,0.19789999999999974
mp-769897,InCoO3,0.0
mp-769898,Li2Ni3SnO8,0.0
mp-769899,MgFe2O5,0.0
mp-769901,ZnFeO3,0.0
mp-769905,ZnFeO3,0.0
mp-769918,Tm2Mn2O7,0.9965999999999999
mp-769927,CrFe2O5,0.47870000000000035
mp-769934,Na2Mn2O3,0.02660000000000018
mp-769938,TbPrO4,0.0
mp-769945,Li3FePCO7,4.056500000000001
mp-769951,Ba2MnO4,0.0
mp-769957,CrFe2O5,0.34189999999999987
mp-773081,Li3Ti6Zn3O16,0.0
mp-773089,K3Li2Nb6(PO8)3,0.0
mp-773101,K3Li2Ta6(PO8)3,0.0
mp-773102,Ce4YO9,0.0
mp-773114,Ce2U3O10,0.0
mp-773116,La20S29O,1.9417999999999997
mp-773161,NbV5(PO4)6,0.0
mp-773162,Li3Fe2SnO6,0.0
mp-773163,Li2Fe3SnO8,0.0
mp-773164,Gd2V2O7,0.9804999999999997
mp-773166,Li5Cu3(NiO5)2,0.0
mp-773167,Mn3CoO8,0.05229999999999979
mp-773174,LiCr4O12,0.0
mp-773179,Li2TiCo3O8,0.0
mp-773180,Li4Mn3Sn5O16,0.0048000000000003595
mp-773182,Li4Cr3Sn5O16,0.0
mp-773186,Tb2WO6,2.9193999999999996
mp-773188,Na3MnBSO7,2.4280999999999997
mp-773195,Li2NiSn(PO4)2,2.1033999999999997
mp-773198,Mn5Fe3O16,0.0
mp-773199,Cs6Co2O7,1.1449000000000003
mp-773202,Li5Mn5(SbO6)2,0.0
mp-777303,Li3CrO4,0.9148000000000003
mp-777311,VFe3Co2(PO4)6,0.0
mp-777317,Mn7Fe3O20,0.0
mp-777318,Li3V2NiO6,0.0
mp-777356,Li2Bi2(SO4)3,1.8644000000000003
mp-777393,LiFeF3,0.0010999999999998789
mp-777420,Fe2Ni3Sb(PO4)6,0.0
mp-777421,Li4Ti3V2Sn3O16,0.0
mp-777423,Na6Ti2O7,3.6308999999999996
mp-777426,Na5Co2As(CO4)4,0.0
mp-777443,Li2FeF6,0.0
mp-777450,Ti5Mn(PO4)6,0.0
mp-777454,V5FeO12,0.0
mp-777457,Li2FeF4,3.5784000000000002
mp-777459,Li3FeF6,3.8142000000000005
mp-777461,Li4V3Cr2Sn3O16,1.3282000000000003
mp-777464,Li4Ti5Cr3O16,0.0
mp-777470,LiFeF3,3.4589999999999996
mp-777471,Li2FeF4,3.587
mp-777477,LiFeF4,3.1167000000000002
mp-850235,Mn8O13F3,0.0
mp-850247,Na2CoO3,0.0
mp-850251,Na2Ti9O19,1.7631999999999999
mp-850266,Li3Co4SbO8,1.2593000000000005
mp-850283,HfNbO4,0.0
mp-850362,Li4MnFe3(BO3)4,3.163
mp-850363,Ti2Co3Te3O16,0.34540000000000015
mp-850365,Ni5Te(PO4)6,0.0
mp-850370,Li6Mn2B4SO16,1.6433999999999997
mp-850371,Na6V2B4AsO16,0.0
mp-850393,Fe3(O2F)2,0.0
mp-850395,LiMn3(BO3)3,0.0
mp-850396,Li2Mn3(BO3)3,0.0
mp-850400,Na3(NiO2)2,0.0
mp-850404,Li2FeO2F,1.8875000000000002
mp-850412,Li7TiCr3(PO4)6,0.0
mp-623044,Ce3Si2Rh3,0.0
mp-623089,CaCdPb,0.0
mp-623092,Gd4Au2O9,1.8748999999999998
mp-623108,Eu4Ir,0.0
mp-623261,PrGaCo,0.0
mp-623295,SmGaCo,0.0
mp-623382,BaFe2(P2O7)2,2.3724999999999996
mp-623751,Tb3Ni,0.0
mp-623814,Hf8FeTe6,0.0
mp-623862,Rb3Tm2Cu4Br13,1.9138000000000002
mp-624186,La9B3C6Br5,0.0
mp-624221,Ge3Rh5,0.0
mp-624234,TePb2O5,2.1304999999999996
mp-624253,Nb4Co2PdSe12,0.0
mp-624307,Cu7Te4,0.0
mp-624397,SiC,1.9959999999999987
mp-624572,Cs2Te(MoO4)3,2.5755999999999997
mp-624668,BaSb2,0.0
mp-624691,VAgO3,1.9191999999999998
mp-624928,KEu(CuTe2)2,0.0
mp-625082,H2CO,0.022800000000000015
mp-625087,U(HO2)2,1.9022999999999999
mp-625147,GdHO2,3.0714000000000006
mp-656887,Ni3O4,0.38149999999999995
mp-675524,CsPbCl3,2.413
mp-675539,Na7Cu3O8,0.9871000000000001
mp-675563,LaZr9O20,0.0
mp-675589,Li2CuP,0.0
mp-675650,Ca(YbS2)2,0.0
mp-675733,Y5(ReO6)2,0.0
mp-675755,TiCu3O4,0.0
mp-675756,Ba3P4O13,1.697
mp-675857,Cd2SnO4,0.22040000000000015
mp-675893,HoPaO4,3.2058999999999997
mp-714896,Cr3O,0.0
mp-714906,V2O3,0.0
mp-714921,V6O13,0.0
mp-714944,VO2,1.0676999999999999
mp-714969,MoO2,1.3853999999999997
mp-714989,Fe3O4,0.0
mp-715276,Fe2O3,1.4248000000000003
mp-715333,Fe7O8,1.0723000000000003
mp-715457,V4O7,0.36830000000000007
mp-715584,MoO3,1.8342999999999998
mp-715617,V6O13,0.0
mp-716814,Fe2O3,0.0
mp-756888,La2(SiO3)3,4.3073999999999995
mp-756889,KRbO,0.0
mp-756897,DyTe3O8,0.0
mp-756919,Mg3(AsO4)2,3.6574999999999998
mp-756927,Li5Nb2Cu5O12,0.0
mp-756953,KSbPCO7,0.0
mp-756978,Ba3(ClO)2,2.3346999999999998
mp-756981,K2SbPCO7,3.8332999999999995
mp-757038,LiSiBiO4,3.6391999999999998
mp-757045,Ti3Nb(CuO4)3,0.0
mp-757047,LiSn(PO3)4,0.0
mp-757048,LiTi(SiO3)2,0.08079999999999998
mp-757070,BaCaI4,3.0153999999999996
mp-758035,Li3Ti3(PO4)4,0.0
mp-758038,La2Ti3O9,2.1407999999999996
mp-758044,Li5Ti8O16,0.0
mp-758052,LiCuF3,0.0
mp-758056,LiTi(PO3)4,0.25039999999999996
mp-758073,Re6Pb6O19,0.0
mp-758088,Ba6Bi6O17,0.0
mp-758089,Li2Ti3O6,0.0
mp-758096,SbOF3,1.9230999999999998
mp-758101,Li4Cu3F10,0.0
mp-758107,Yb2P4O13,0.0
mp-758156,Li3Sn3(PO4)4,0.0
mp-758168,NaZn2HSe2O7,3.7643999999999997
mp-763268,MnOF,0.0
mp-763274,Mn3(O2F)2,0.0
mp-763275,Li4Co3Cu2Sb3O16,0.0
mp-763276,Sr3Co3O8,0.0
mp-763280,Li2CoCO4,2.5618999999999996
mp-763282,Li4VP2O9,3.4928999999999997
mp-763284,FeOF,0.0
mp-763293,Co3O5F,0.0
mp-763300,LiFeO2,1.6202000000000005
mp-763303,Mn3O5F,0.0
mp-763304,Li2CoSiO4,2.9941999999999993
mp-763307,Li4Ti3Mn2Co3O16,0.23399999999999999
mp-763310,LiCo5O8,0.0
mp-763314,LiCo2CuO6,0.0
mp-763316,Mn3O5F,0.0
mp-763319,V3O5F,0.047100000000000364
mp-763324,Li2Mn2P4H3O16,0.27500000000000013
mp-763326,CoOF,0.0
mp-763329,Li2Fe3TeO8,0.0
mp-763341,Fe2O3F,0.0
mp-763351,Fe2O3F,0.0
mp-763353,Fe4O5F3,0.0
mp-765873,LiV2F5,2.2601999999999998
mp-765876,MnCo3O8,1.0108000000000001
mp-765885,Mn(CoO3)2,0.0
mp-765886,CoSbO4,0.0
mp-765887,Li4NiOF4,1.8989000000000003
mp-765888,Fe2CoO6,0.0
mp-765891,LiNi5O5F,2.2295999999999996
mp-765894,Li5VF8,2.4829999999999997
mp-765896,LiV3F10,1.7610000000000001
mp-765911,Mn7F18,0.0
mp-765912,Ti(CoO3)2,1.2311999999999999
mp-765914,LiV(OF)2,2.6761999999999997
mp-765917,LiV2OF5,1.8419999999999999
mp-765922,FeCo3O8,0.0
mp-765923,Mn2F7,0.21229999999999993
mp-765924,Mn2F5,0.0
mp-765930,Li4SbTe2WO12,0.0
mp-765934,Li2FeP2O7,3.6667999999999994
mp-765935,Li2Co4OF8,2.7489999999999997
mp-765940,LiV(OF)2,2.5282999999999998
mp-765957,Li6V2O5F2,1.2772999999999999
mp-765961,LiFeSi3O8,3.1435999999999997
mp-765963,LiFePO4,3.1186999999999996
mp-769960,Li4Co3WO8,1.9309999999999996
mp-769968,VGeO3,0.01240000000000041
mp-769978,CrFeO4,0.12550000000000017
mp-769983,Li2CrFeO4,1.7079999999999997