task_id,composition,band_gap
mp-1183936,Eu2Mg,0.0
mp-1183886,Eu2MgCd,0.0
mp-1225624,Eu2MgGa3,0.0
mp-1184025,Eu2MgIn,0.0
mp-1188494,Eu2MgIrO6,0.0
mp-1213021,Eu2MgPtO6,0.0
mp-1232050,Eu2MgS4,0.0
mp-1232395,Eu2MgSe4,0.0
mp-1183894,Eu2MgSn,0.0
mp-1183884,Eu2MgTl,0.0
mp-1226301,Eu2Mn(GeO3)4,0.0
mp-1099747,Eu2Mn2O5,0.0
mp-769834,Eu2Mn2O7,0.0
mp-1225901,Eu2Mn3Sb3O14,0.0
mp-1181563,Eu2Mn5Al12,0.0
mp-1225492,Eu2MnP3Pt7,0.0
mp-1225753,Eu2MnRhO6,0.0
mp-1225478,Eu2MnSbO7,0.0
mp-1190662,Eu2MnSi2O7,0.0
mp-1225913,Eu2Mo(WO6)2,0.0
mp-1191878,Eu2Mo2O7,0.0
mp-1226168,Eu2Mo2WO12,0.0
mp-1198444,Eu2Mo3H2Se2O17,0.0
mp-1213281,Eu2MoO6,0.0
mp-1212961,Eu2N,0.0
mp-674312,Eu2Nb4O13,0.0
mp-1213102,Eu2Nb5O9,0.0
mp-1225682,Eu2NbGaO7,0.0
mp-1213550,Eu2Ni12P5,0.0
mp-1201182,Eu2Ni17,0.0
mp-1076223,Eu2Ni2O5,0.0
mp-1225511,Eu2Ni3Sb4,0.0
mp-1213320,Eu2Ni7P4,0.0
mp-1225476,Eu2NiGe3,0.0
mp-1178384,Eu2NiO4,0.0
mp-1212982,Eu2NiPtO6,0.0
mp-1213246,Eu2NiRuO6,0.0
mp-1225298,Eu2P3Pt4,0.0
mp-1225319,Eu2PCl,0.0
mp-569689,Eu2PI,0.0
mp-756670,Eu2Pb2O7,0.0
mp-1184039,Eu2PdAu,0.0
mp-1191889,Eu2Pt2O7,0.0
mp-867502,Eu2PtAu,0.0
mp-572604,Eu2Re6S11,0.0
mp-637431,Eu2Ru2O7,0.0
mp-1106110,Eu2S3,0.0
mp-21071,Eu2SO2,0.0
mp-542297,Eu2SO6,0.0
mp-1199270,Eu2Sb3,0.0
mp-1184372,Eu2SbAu,0.0
mp-1225538,Eu2ScNbO7,0.0
mp-754655,Eu2SeO2,0.0
mp-1225299,Eu2SeS,0.0
mp-1102477,Eu2Si,0.0
mp-21599,Eu2Si2O7,0.0
mp-1191372,Eu2Si3Ag,0.0
mp-1225441,Eu2Si3Au,0.0
mp-1225271,Eu2Si3Ni,0.0
mp-1202253,Eu2Si3Ni8,0.0
mp-22765,Eu2Si3Pd,0.0
mp-1225244,Eu2Si4IrPd3,0.0
mp-1225277,Eu2Si4Pd3Au,0.0
mp-1105156,Eu2Si5Pt3,0.0
mp-1191010,Eu2SiN3,0.0
mp-867966,Eu2SiO5,0.0
mp-1213070,Eu2Sn,0.0
mp-505306,Eu2Sn2O7,0.0
mp-867477,Eu2SnHg,0.0
mp-632490,Eu2SnS4,0.0
mp-1191288,Eu2Ta2O7,0.0
mp-1226871,Eu2Ti12(CuO4)9,0.0
mp-1184430,Eu2Ti2O5,0.0
mp-1225669,Eu2TiCuO6,0.0
mp-1025200,Eu2TiO4,0.0
mp-1195915,Eu2TiO5,0.0
mp-1184281,Eu2TlCd,0.0
mp-1184263,Eu2TlHg,0.0
mp-1184473,Eu2TlIn,0.0
mp-1184286,Eu2TlSn,0.0
mp-1184322,Eu2TlZn,0.0
mp-1099750,Eu2V2O5,0.0
mp-1184406,Eu2W2O5,0.0
mp-1213585,Eu2WO6,0.0
mp-771309,Eu2Y2O5,0.0
mp-1104456,Eu2Zn2As3,0.0
mp-1212837,Eu2Zn2CuP3,0.0
mp-1104145,Eu2Zn2P3,0.0
mp-1103795,Eu2Zn3Ge,0.0
mp-1184356,Eu2ZnAg,0.0
mp-1184288,Eu2ZnCd,0.0
mp-1184310,Eu2ZnGa,0.0
mp-1095470,Eu2ZnGe3,0.0
mp-1184247,Eu2ZnHg,0.0
mp-1184464,Eu2ZnIn,0.0
mp-1184277,Eu2ZnIr,0.0
mp-1078980,Eu2ZnP2,0.0
mp-1225253,Eu2ZnP3Pt7,0.0
mp-1212992,Eu2ZnPtO6,0.0
mp-1184339,Eu2ZnRh,0.0
mp-1225256,Eu2ZnSb2,0.0
mp-1184291,Eu2ZnSn,0.0
mp-685944,Eu2Zr2O7,0.0
mp-1206153,Eu2ZrO4,0.0
mp-612175,Eu3(AsPd)4,0.0
mp-672322,Eu3(B3Rh4)2,0.0
mp-11638,Eu3(Cu2Sn)4,0.0
mp-1193402,Eu3(Ga2Ge3)2,0.0
mp-636287,Eu3(GaNi)4,0.0
mp-1200526,Eu3(GeAs2)2,0.0
mp-1095238,Eu3(GeIr)4,0.0
mp-1188263,Eu3(InP2)2,0.0
mp-1201532,Eu3(MgGe)5,0.0
mp-1199980,Eu3(MgSi)5,0.0
mp-1226420,Eu3(PPt)4,0.0
mp-1080739,Eu3(SF2)2,0.0
mp-1199837,Eu3(SiAs2)2,0.0
mp-1191000,Eu3(SiNi3)2,0.0
mp-1193516,Eu3(SnPd)2,0.0
mp-1184295,Eu3Ag,0.0
mp-621667,Eu3Ag2,0.0
mp-1212916,Eu3Al2O7,0.0
mp-21757,Eu3Al5O12,0.0
mp-1019729,Eu3AlO5,0.0
mp-1104668,Eu3As4,0.0
mp-1189094,Eu3Au,0.0
mp-1104457,Eu3Au2,0.0
mp-21389,Eu3AuO6,0.0
mp-1213384,Eu3B2(O2F)3,0.0
mp-1102298,Eu3B2Pt7,0.0
mp-566088,Eu3BWO9,0.0
mp-579259,Eu3BeO5,0.0
mp-1184377,Eu3Bi,0.0
mp-1184391,Eu3Cr,0.0
mp-1184402,Eu3Dy,0.0
mp-1225434,Eu3DySb3,0.0
mp-1184396,Eu3Er,0.0
mp-566538,Eu3Fe5O12,0.0
mp-1189159,Eu3FeO6,0.0
mp-672286,Eu3Ga2,0.0
mp-1184542,Eu3Ga5,0.0
mp-1213411,Eu3Ga5O12,0.0
mp-1102706,Eu3Ga8,0.0
mp-1184814,Eu3GaO6,0.0
mp-1194348,Eu3GaP3,0.0
mp-1204216,Eu3Ge13Os4,0.0
mp-1189484,Eu3Ge5,0.0
mp-1184386,Eu3H,0.0
mp-1184326,Eu3Hf,0.0
mp-1184407,Eu3Ho,0.0
mp-1184515,Eu3In,0.0
mp-1069296,Eu3InO,0.0
mp-1193614,Eu3InP3,0.0
mp-17981,Eu3IrO7,0.0
mp-1184432,Eu3Lu,0.0
mp-1184342,Eu3Mg,0.0
mp-1213342,Eu3MoO7,0.0
mp-1184441,Eu3Nb,0.0
mp-1182716,Eu3O4,0.0
mp-561983,Eu3OsO7,0.0
mp-865685,Eu3P,0.0
mp-1105092,Eu3P4,0.0
mp-1225764,Eu3Pd,0.0
mp-1105286,Eu3Pd2,0.0
mp-1104698,Eu3Pt2,0.0
mp-1006150,Eu3Re,0.0
mp-581427,Eu3ReO7,0.0
mp-755985,Eu3ReO8,0.0
mp-1189512,Eu3Rh,0.0
mp-1199220,Eu3Rh4Pb13,0.0
mp-1184541,Eu3S,0.0
mp-1184203,Eu3Sb,0.0
mp-505043,Eu3Sb5O12,0.0
mp-1190831,Eu3SbO7,0.0
mp-1213528,Eu3Sc2(FeO4)3,0.0
mp-1213328,Eu3Sc2Al3O12,0.0
mp-1196416,Eu3Si2BO10,0.0
mp-1225258,Eu3Si4,0.0
mp-1213142,Eu3Sn13Ir4,0.0
mp-1199325,Eu3Sn13Rh4,0.0
mp-1212891,Eu3Sn5,0.0
mp-1184433,Eu3Ta,0.0
mp-1213410,Eu3Ta5O15,0.0
mp-1213095,Eu3TaO7,0.0
mp-1184385,Eu3Te,0.0
mp-1184405,Eu3Th,0.0
mp-1184338,Eu3Ti,0.0
mp-1212973,Eu3Ti2O7,0.0
mp-867318,Eu3Tl,0.0
mp-1184443,Eu3Tm,0.0
mp-1184456,Eu3U,0.0
mp-1184340,Eu3V,0.0
mp-1212877,Eu3V2O7,0.0
mp-1184504,Eu3W,0.0
mp-1213105,Eu3W(ClO2)3,0.0
mp-770564,Eu3WO6,0.0
mp-1184475,Eu3Y,0.0
mp-1226148,Eu3YMn4O12,0.0
mp-1103457,Eu3Zn2(CuP2)2,0.0
mp-1184395,Eu3Zr,0.0
mp-1213330,Eu4Al,0.0
mp-582606,Eu4Al2O9,0.0
mp-1077953,Eu4As2O,0.0
mp-20995,Eu4As3,0.0
mp-1199066,Eu4B4O11F2,0.0
mp-1225374,Eu4BPd12,0.0
mp-1078184,Eu4Bi2O,0.0
mp-1104641,Eu4Bi3,0.0
mp-623108,Eu4Ir,0.0
mp-1201125,Eu4Lu(SnS4)3,0.0
mp-700156,Eu4Mo4O11,0.0
mp-753354,Eu4O3F7,0.0
mp-1213439,Eu4PdO7,0.0
mp-1078192,Eu4Sb2O,0.0
mp-1212797,Eu4Ti3O10,0.0
mp-1227723,Eu4Zn51,0.0
mp-1105347,Eu5(MoO6)2,0.0
mp-1189832,Eu5(ZrS4)3,0.0
mp-1106024,Eu5As3,0.0
mp-1193503,Eu5Cd2Sb5O,0.0
mp-1189588,Eu5CdCu2,0.0
mp-1213313,Eu5Ga3,0.0
mp-1193741,Eu5Ga9,0.0
mp-1188934,Eu5Ge3,0.0
mp-1184420,Eu5Mg,0.0
mp-1185383,Eu5Nb4O15,0.0
mp-1212818,Eu5P3O13,0.0
mp-1104610,Eu5Pd2,0.0
mp-1104413,Eu5Pt2,0.0
mp-1196458,Eu5Pt4,0.0
mp-1105949,Eu5Sb3,0.0
mp-1190061,Eu5Si3,0.0
mp-1182046,Eu5Si3H,0.0
mp-558207,Eu5Si3O12F,0.0
mp-1213303,Eu5Si3O13,0.0
mp-1188090,Eu5Sn3H,0.0
mp-1192440,Eu5Ta4O15,0.0
mp-1202464,Eu5V3S6O7,0.0
mp-1212839,Eu6Ni20P13,0.0
mp-1229174,Eu6P19Rh30,0.0
mp-1198785,Eu6Sb6S17,0.0
mp-761429,Eu6WO12,0.0
mp-1106137,Eu7Au3,0.0
mp-1196262,Eu7Cu44As23,0.0
mp-1192827,Eu8In3,0.0
mp-1229284,Eu8Mn3Nb5O28,0.0
mp-1213676,Eu8Ni18P11,0.0
mp-1213589,Eu9(Ni13P6)2,0.0
mp-665747,EuAg,0.0
mp-1436,EuAg2,0.0
mp-1184463,EuAg2Pb,0.0
mp-865192,EuAg2Sn,0.0
mp-1184392,EuAg3,0.0
mp-542568,EuAg5,0.0
mp-21330,EuAgAs,0.0
mp-865013,EuAgAu2,0.0
mp-23378,EuAgBi,0.0
mp-1225254,EuAgGe,0.0
mp-1184389,EuAgHg2,0.0
mp-756690,EuAgO2,0.0
mp-1077622,EuAgO3,0.0
mp-20482,EuAgP,0.0
mp-1225251,EuAgSn,0.0
mp-1189619,EuAl,0.0
mp-20111,EuAl2,0.0
mp-1190090,EuAl2Ge,0.0
mp-1212809,EuAl3(BO3)4,0.0
mp-1196233,EuAl3(PbO4)2,0.0
mp-1225214,EuAl3Ag2,0.0
mp-1025136,EuAl3Cu2,0.0
mp-1225249,EuAl3Si,0.0
mp-582799,EuAl4,0.0
mp-1225219,EuAl8SiAu4,0.0
mp-1225185,EuAlAg4,0.0
mp-1103193,EuAlAu,0.0
mp-1225194,EuAlGa,0.0
mp-1206175,EuAlGe,0.0
mp-1212768,EuAlGe2O7,0.0
mp-1225173,EuAlSi,0.0
mp-1101926,EuAs,0.0
mp-1078796,EuAs3,0.0
mp-983564,EuAsO3,0.0
mp-13576,EuAsO4,0.0
mp-1025079,EuAsPd,0.0
mp-1102917,EuAsS,0.0
mp-1078589,EuAu,0.0
mp-1071698,EuAu2,0.0
mp-1184419,EuAu3,0.0
mp-510098,EuAu5,0.0
mp-1184383,EuAuO3,0.0
mp-1096955,EuB12,0.0
mp-20874,EuB6,0.0
mp-1019734,EuBN2,0.0
mp-1103637,EuBPt4,0.0
mp-510377,EuBRh3,0.0
mp-1194109,EuBe13,0.0
mp-1184325,EuBeO3,0.0
mp-1077479,EuBi2,0.0
mp-669431,EuBi2BrO4,0.0
mp-550566,EuBi2ClO4,0.0
mp-1018695,EuBiAu,0.0
mp-1184261,EuBiAu2,0.0
mp-1184306,EuBiPd2,0.0
mp-1212780,EuBr2O,0.0
mp-1205810,EuBr3,0.0
mp-504727,EuBrO,0.0
mp-1025545,EuBrO2,0.0
mp-1018177,EuC2,0.0
mp-22175,EuC2(SN)2,0.0
mp-1103990,EuC6,0.0
mp-1192396,EuCO4,0.0
mp-580236,EuCd,0.0
mp-541157,EuCd(BO2)5,0.0
mp-30487,EuCd2,0.0
mp-1184455,EuCd2In,0.0
mp-864634,EuCd3,0.0
mp-1225230,EuCdAg,0.0
mp-1184330,EuCdAg2,0.0
mp-866297,EuCdAu2,0.0
mp-1225324,EuCdAu5,0.0
mp-1102923,EuCdGe,0.0
mp-864796,EuCdHg2,0.0
mp-1018696,EuCdPb,0.0
mp-1095346,EuCdPt,0.0
mp-1018697,EuCdSn,0.0
mp-569895,EuCl3,0.0
mp-1025494,EuClO2,0.0
mp-1225172,EuCo2SiGe,0.0
mp-1192337,EuCo9Si2,0.0
mp-10690,EuCoGe3,0.0
mp-1212757,EuCoO3,0.0
mp-1183881,EuCr3,0.0
mp-1204938,EuCrHO5,0.0
mp-1189762,EuCrO3,0.0
mp-1087547,EuCu,0.0
mp-1213368,EuCu(WO4)2,0.0
mp-1071732,EuCu2,0.0
mp-1079564,EuCu4P3,0.0
mp-635456,EuCuBi,0.0
mp-1198564,EuCuGe,0.0
mp-13696,EuCuO2,0.0
mp-1075902,EuCuO3,0.0
mp-22292,EuCuSb,0.0
mp-21356,EuCuSeF,0.0
mp-510596,EuCuSeO,0.0
mp-1225144,EuCuSi3,0.0
mp-1225252,EuCuSn,0.0
mp-1225188,EuDyTi2O7,0.0
mp-1183921,EuEr,0.0
mp-1183905,EuErO3,0.0
mp-1184376,EuErTl2,0.0
mp-504731,EuF2,0.0
mp-1190091,EuFe4(CuO4)3,0.0
mp-1213269,EuFeGe2O7,0.0
mp-540832,EuFeO3,0.0
mp-1079244,EuGa,0.0
mp-22317,EuGa2,0.0
mp-1212739,EuGa3(BO3)4,0.0
mp-1225128,EuGa3Ag,0.0
mp-1225152,EuGa3Cu,0.0
mp-1102481,EuGa3Ni2,0.0
mp-1078429,EuGa3Pd,0.0
mp-21884,EuGa4,0.0
mp-1212681,EuGa4Au3,0.0
mp-1225220,EuGaAg,0.0
mp-1225134,EuGaAg4,0.0
mp-1225205,EuGaAu,0.0
mp-1184283,EuGaAu2,0.0
mp-1225215,EuGaCu,0.0
mp-1101845,EuGaGe,0.0
mp-1213196,EuGaGe2O7,0.0
mp-1206706,EuGaO3,0.0
mp-1102975,EuGaPt,0.0
mp-1225124,EuGaSi,0.0
mp-1102160,EuGaSn,0.0
mp-1184442,EuGdRh2,0.0
mp-1225996,EuGdTi2O7,0.0
mp-20712,EuGe,0.0
mp-22116,EuGe2,0.0
mp-613206,EuGe2Ir,0.0
mp-1078610,EuGe3,0.0
mp-1068715,EuGe3Ir,0.0
mp-1068422,EuGe3Pd,0.0
mp-1069658,EuGe3Rh,0.0
mp-1191379,EuGe7Ir3,0.0
mp-1191926,EuGe7Rh3,0.0
mp-9293,EuGeAu,0.0
mp-865181,EuGeO3,0.0
mp-1188312,EuGePd2,0.0
mp-581575,EuGeS3,0.19559999999999972
mp-863015,EuH32C8N4Cl7,0.0
mp-644246,EuH3Pd,0.0
mp-1190587,EuH9C5(NO4)2,0.0
mp-1078670,EuHO3,0.0
mp-560128,EuHSO5,0.0
mp-11375,EuHg,0.0
mp-20719,EuHg2,0.0
mp-1184270,EuHg2Bi,0.0
mp-1184462,EuHg2Pb,0.0
mp-1080132,EuHg3,0.0
mp-977581,EuHgAu2,0.0
mp-1184359,EuHgO3,0.0
mp-1018698,EuHgPb,0.0
mp-1184452,EuHo3,0.0
mp-600622,EuIO,0.0
mp-1058490,EuIn,0.0
mp-636316,EuIn2,0.0
mp-639496,EuIn2Au,0.0
mp-19997,EuIn2Ni,0.0
mp-1184378,EuIn3,0.0
mp-638253,EuIn4,0.0
mp-1102671,EuIn4Au,0.0
mp-1095660,EuIn4Cu,0.0
mp-1095333,EuIn4Ir,0.0
mp-1103002,EuIn4Ni,0.0
mp-1213431,EuIn6Ni7,0.0
mp-1184437,EuInAg2,0.0
mp-866021,EuInAu2,0.0
mp-1184408,EuInHg2,0.0
mp-1006242,EuInNi5,0.0
mp-1212980,EuInO3,0.0
mp-1077596,EuInPt4,0.0
mp-1101788,EuInRh,0.0
mp-1184445,EuIrO3,0.0
mp-1184309,EuLuO3,0.0
mp-21253,EuMg,0.0
mp-1213294,EuMg(BO2)5,0.0
mp-1184321,EuMg2,0.0
mp-1067840,EuMg2Fe,0.0
mp-1188846,EuMg2H5,0.0
mp-1184300,EuMg3,0.0
mp-1184282,EuMg5,0.0
mp-1212683,EuMgAg,0.0
mp-1184290,EuMgCd2,0.0
mp-867152,EuMgGe,0.0
mp-861928,EuMgHg2,0.0
mp-1103210,EuMgNi,0.0
mp-972931,EuMgO3,0.0
mp-1102076,EuMgPd,0.0
mp-1102652,EuMgSi,0.0
mp-1102145,EuMgSn,0.0
mp-1184347,EuMgTl2,0.0
mp-1184328,EuMgZn2,0.0
mp-622520,EuMn2O5,0.0
mp-641487,EuMn4(CuO4)3,0.0
mp-1078314,EuMnBi2,0.0
mp-1225294,EuMnIn,0.0
mp-25667,EuMnO3,0.0
mp-608717,EuMoClO4,0.0
mp-1213225,EuMoO2,0.0
mp-1184411,EuMoO3,0.0
mp-1212798,EuMoO5,0.0
mp-1072167,EuN2,0.0
mp-1201130,EuNb2O6,0.0
mp-1184454,EuNb3,0.0
mp-1225127,EuNbNO2,0.0
mp-1078341,EuNbO3,0.0
mp-12646,EuNbO4,0.0
mp-21064,EuNi2B2C,0.0
mp-974834,EuNi3,0.0
mp-22311,EuNi5,0.0
mp-16838,EuNi5As3,0.0
mp-582367,EuNi5P3,0.0
mp-1213407,EuNi9Ge4,0.0
mp-5887,EuNiGe,0.0
mp-1080556,EuNiGe2,0.0
mp-32341,EuNiO3,0.0
mp-1206697,EuNiP,0.0
mp-1213363,EuNpO3,0.0
mp-1018700,EuO2,0.0
mp-1206483,EuO3,0.0
mp-977370,EuOsO3,0.0
mp-20300,EuP,0.0
mp-1079534,EuP3,0.0
mp-555522,EuPH5CO7,0.0
mp-1095517,EuPIr,0.0
mp-3219,EuPO4,0.0
mp-20394,EuPb,0.0
mp-20309,EuPb3,0.0
mp-1184451,EuPbAu2,0.0
mp-1184348,EuPbO3,0.0
mp-636279,EuPd3,0.0
mp-20961,EuPd3S4,0.0
mp-1184369,EuPdO3,0.0
mp-976258,EuPtO3,0.0
mp-1184467,EuPuRh2,0.0
mp-1101994,EuRe2,0.0
mp-976320,EuReO3,0.0
mp-623827,EuRh2,0.0
mp-866036,EuRuO3,0.0
mp-1232155,EuS2,0.0
mp-1184315,EuS3,0.0
mp-611062,EuSb2,0.0
mp-510637,EuSbO4,0.0
mp-1101822,EuSbPd,0.0
mp-1077831,EuScGe,0.0
mp-1232230,EuSe2,0.0
mp-639138,EuSeClO3,0.0
mp-769334,EuSeO4,0.0
mp-21279,EuSi,0.0
mp-1072248,EuSi2,0.0
mp-1025553,EuSi2Ni,0.0
mp-1190872,EuSi2Ni9,0.0
mp-1225121,EuSi2PdAu,0.0
mp-1212688,EuSi2Pt,0.0
mp-1069707,EuSi3Ir,0.0
mp-1225162,EuSi3Ni,0.0
mp-1068807,EuSi3Rh,0.0
mp-1225155,EuSiNi2Ge,0.0
mp-866030,EuSiO3,0.0
mp-1102440,EuSiPd,0.0
mp-1103258,EuSiPt,0.0
mp-567833,EuSn,0.0
mp-1195875,EuSn3Sb4,0.0
mp-1018701,EuSnHg,0.0
mp-22031,EuSnPd,0.0
mp-608517,EuSnPt,0.0
mp-1184434,EuSnRh2,0.0
mp-1225272,EuTa3O9,0.0
mp-1225199,EuTaNO2,0.0
mp-5957,EuTaO4,0.0
mp-1184447,EuTcO3,0.0
mp-1184539,EuTh3,0.0
mp-684730,EuTi2CdO6F,0.0
mp-555860,EuTiClO3,0.0
mp-1225394,EuTiNbBi2O9,0.0
mp-603081,EuTl(MoO4)2,0.0
mp-1212775,EuTl(WO4)2,0.0
mp-861902,EuTl2Cd,0.0
mp-1064843,EuTl3,0.0
mp-1184293,EuTlAu2,0.0
mp-1184250,EuTlHg2,0.0
mp-754253,EuTlO2,0.0
mp-657233,EuTlPS4,0.0
mp-1007900,EuTlS2,0.0
mp-1213610,EuTlS2O9,0.0
mp-1225132,EuTmB12,0.0
mp-1184353,EuTmO3,0.0
mp-1184404,EuU3,0.0
mp-1213318,EuUO3,0.0
mp-1198609,EuV(SeO4)2,0.0
mp-1225151,EuV2BiO8,0.0
mp-1197271,EuV2IO9,0.0
mp-1213429,EuVO2,0.0
mp-1178351,EuVO3,0.0
mp-1212926,EuWO2,0.0
mp-1184400,EuWO3,0.0
mp-1212796,EuWO5,0.0
mp-1184439,EuY3,0.0
mp-1225326,EuYAl6(BO3)8,0.0
mp-769167,EuYO2,0.0
mp-1019730,EuZn(BO2)5,0.0
mp-1191536,EuZn11,0.0
mp-669703,EuZn13,0.0
mp-681,EuZn2,0.0
mp-2436,EuZn5,0.0
mp-1102568,EuZnAu,0.0
mp-1184264,EuZnAu2,0.0
mp-1225196,EuZnGa,0.0
mp-9873,EuZnGe,0.0
mp-1225425,EuZnIn,0.0
mp-1225768,EuZnIn3,0.0
mp-1225355,EuZnPb,0.0
mp-1102897,EuZnPd,0.0
mp-21234,EuZnSi,0.0
mp-11040,EuZnSn,0.0
mp-532491,EuZr3F15,3.953
mp-582856,EuZr6(PO4)9,0.0
mp-1189927,EuZrS3,0.0
mp-1106192,EuZrSe3,0.0
mp-1078299,Fe(BMo)2,0.0
mp-1225537,Fe(BRh2)3,0.0
mp-1068296,Fe(BW)2,0.0
mp-1079633,Fe(BrN)2,0.0
mp-769642,Fe(CO3)2,0.0
mp-1079439,Fe(ClO2)3,0.0
mp-1225276,Fe(ClO7)2,0.0
mp-761530,Fe(CoO3)2,0.0
mp-1025235,Fe(CoSe2)2,0.0
mp-1212869,Fe(CuC6)2,0.0
mp-672708,Fe(CuS)2,0.0
mp-1043501,Fe(GeO3)2,0.0
mp-1103998,Fe(Mo3S4)2,0.0
mp-1225290,Fe(Mo3Se4)2,0.0
mp-542189,Fe(MoS2)2,0.0
mp-1069054,Fe(NCl)2,0.0
mp-1224728,Fe(NiAs)2,0.0
mp-640147,Fe(NiO2)2,0.0
mp-673824,Fe(NiS2)2,0.0
mp-1025359,Fe(NiSe2)2,0.0
mp-1204434,Fe(PO4)3,0.0
mp-753614,Fe(PS3)2,0.0
mp-12466,Fe(PdSe)2,0.0
mp-1224752,Fe(ReO3)2,0.0
mp-10754,Fe(RhS2)2,0.0
mp-1078162,Fe(RhSe2)2,0.0
mp-771582,Fe(SO4)2,0.0
mp-541194,Fe(SbO3)2,0.0
mp-770991,Fe(SbO3)4,0.0
mp-20767,Fe(SbS2)2,0.0
mp-510757,Fe(Se2O5)2,0.0
mp-744274,Fe(Si2O3)2,0.0
mp-25537,Fe(WO4)2,0.0
mp-780434,Fe10O11F9,0.0
mp-777526,Fe10O19F,0.0
mp-601848,Fe11Co5,0.0
mp-571055,Fe11Mo6C5,0.0
mp-1096767,Fe11MoC4,0.0
mp-1225858,Fe11S12,0.0
mp-19800,Fe11Si5,0.0
mp-1225179,Fe12Ge3As2,0.0
mp-27908,Fe12N5,0.0
mp-764326,Fe12O13,0.0
mp-641526,Fe13Co3,0.0
mp-763652,Fe13Cu5O24,0.0
mp-601833,Fe13Ge3,0.0
mp-1213182,Fe13Mo9,0.0
mp-705414,Fe13O14,0.0
mp-1195927,Fe13O19,0.0
mp-705749,Fe14Ni11O32,0.0
mp-18695,Fe15Co,0.0
mp-540329,Fe2(PO4)3,0.0
mp-1224715,Fe2(PdAu)3,0.0
mp-641587,Fe21(MoC3)2,0.0
mp-641595,Fe21(WC3)2,0.0
mp-698578,Fe21O32,0.0
mp-1224794,Fe22B6W,0.0
mp-1224758,Fe23(BC)3,0.0
mp-542758,Fe23B6,0.0
mp-1192884,Fe23C6,0.0
mp-684887,Fe24N11,0.0
mp-1193426,Fe25Mo4,0.0
mp-1194978,Fe25O32,0.0
mp-1191552,Fe2AgS3,0.0
mp-20426,Fe2As,0.0
mp-1197443,Fe2As2PbO10,0.0
mp-1224707,Fe2AsP,0.0
mp-1915,Fe2B,0.0
mp-15722,Fe2B4Mo,0.0
mp-1194531,Fe2B7,0.0
mp-1224738,Fe2BiSbO7,0.0
mp-1871,Fe2C,0.0
mp-1103030,Fe2ClO3,0.0
mp-778217,Fe2Co3O10,0.0
mp-30044,Fe2CoGe,0.0
mp-1097158,Fe2CoIr,0.0
mp-765888,Fe2CoO6,0.0
mp-1078104,Fe2CoSe4,0.0
mp-1207117,Fe2CoSi,0.0
mp-1181853,Fe2Cu(AsO7)2,0.0
mp-775240,Fe2Cu(PO4)3,0.0
mp-1193267,Fe2Cu(PO5)2,0.0
mp-1224745,Fe2Cu10Sb4S13,0.0
mp-1227624,Fe2Cu13(GeS8)2,0.0
mp-1225320,Fe2Cu3(Sn3Se8)2,0.0
mp-651268,Fe2Cu6SnS8,0.0
mp-1201149,Fe2Cu8P4O21,0.0
mp-21141,Fe2CuGe2,0.0
mp-1224737,Fe2CuNiPt4,0.0
mp-770107,Fe2CuO4,0.0
mp-605485,Fe2CuS3,0.0
mp-20432,Fe2Ge,0.0
mp-705147,Fe2GeSe4,0.0
mp-1184418,Fe2Ir2O5,0.0
mp-1097084,Fe2IrRh,0.0
mp-1095682,Fe2Mo,0.0
mp-669355,Fe2Mo4C,0.0
mp-644758,Fe2Mo4N,0.0
mp-684744,Fe2N,0.0
mp-1191064,Fe2NO8,0.0
mp-1224697,Fe2Ni,0.0
mp-774420,Fe2Ni(PO4)3,0.0
mp-777420,Fe2Ni3Sb(PO4)6,0.0
mp-1105860,Fe2NiB,0.0
mp-1189517,Fe2NiC,0.0
mp-571370,Fe2NiP,0.0
mp-686717,Fe2NiSe4,0.0
mp-763341,Fe2O3F,0.0
mp-778,Fe2P,0.0
mp-1199047,Fe2P12W,0.0
mp-1202069,Fe2P2N2Cl2(O2F)3,0.0
mp-1041062,Fe2P2O9,0.0
mp-1101584,Fe2P5O16,0.0
mp-1224694,Fe2Pd,0.0
mp-1224692,Fe2Pt,0.0
mp-1224702,Fe2PtRh,0.0
mp-639789,Fe2Re3,0.0
mp-673875,Fe2RhS4,0.0
mp-952567,Fe2S3,0.0
mp-1198915,Fe2S3O17,0.0
mp-1224691,Fe2SbTe3,0.0
mp-1225163,Fe2SeS,0.0
mp-22787,Fe2Si,0.0
mp-1207121,Fe2SiNi,0.0
mp-1024054,Fe2SiS4,0.0
mp-510164,Fe2Sn,0.0
mp-675496,Fe2SnS4,0.0
mp-1182492,Fe2Te2SO13,0.0
mp-1188722,Fe2Te4ClO12,0.0
mp-1225136,Fe2TeSe,0.0
mp-20868,Fe2W,0.0
mvc-6284,Fe3(AsO4)4,0.0
mp-1226049,Fe3(BrO2)8,0.0
mp-532329,Fe3(CuS5)2,0.0
mp-1193589,Fe3(Ni10B3)2,0.0
mp-780091,Fe3(O2F)2,0.0
mp-31818,Fe3(PO4)4,0.0
mp-1181366,Fe3(PO6)2,0.0
mp-1195420,Fe3(PO8)2,0.0
mp-754767,Fe3(SnS4)2,0.0
mp-1225420,Fe3(WN2)4,0.0
mp-1178315,Fe31Si5O48,0.9590000000000001
mp-1184230,Fe3Ag,0.0
mp-1225504,Fe3Ag(SnS4)2,0.0
mp-1184272,Fe3Au,0.0
mp-510623,Fe3C,0.0
mp-601820,Fe3Co,0.0
mp-762056,Fe3Co2Ni(PO4)6,0.0
mp-762193,Fe3Co2Sn(PO4)6,0.0
mp-997541,Fe3Co2Te(PO4)6,0.0
mp-761701,Fe3Co3(SbO8)2,0.0
mp-761932,Fe3Co3(TeO8)2,0.0
mp-1225207,Fe3Co3B2,0.0
mp-1225391,Fe3Co3Ge2,0.0
mp-1225227,Fe3Co3Si2,0.0
mp-778275,Fe3Co7O20,0.0
mp-763121,Fe3CoCu2(PO4)6,0.0
mp-1212650,Fe3CoN,0.0
mp-770497,Fe3CoNi2(PO4)6,0.0
mp-1225131,Fe3Cu,0.0
mp-775191,Fe3Cu(PO4)4,0.0
mp-1225264,Fe3Cu(SnS4)2,0.0
mp-776055,Fe3Cu2Sb(PO4)6,0.0
mp-775965,Fe3Cu2Sn(PO4)6,0.0
mp-776831,Fe3Cu2Te(PO4)6,0.0
mp-1225133,Fe3CuAs2,0.0
mp-767442,Fe3CuNi2(PO4)6,0.0
mp-1184279,Fe3F,0.0
mp-20711,Fe3Ge,0.002600000000000157
mp-1225197,Fe3Ge2,0.0
mp-984102,Fe3H,0.0
mp-985475,Fe3Mo,0.0
mp-1193060,Fe3Mo3C,0.0
mp-510619,Fe3Mo3N,0.0
mp-1225023,Fe3Mo5N8,0.0
mp-1224938,Fe3Mo6PdN2,0.0
mp-1224884,Fe3Mo6PtN2,0.0
mp-1224957,Fe3Mo6RhN2,0.0
mp-1224780,Fe3Ni,0.0
mp-1225027,Fe3Ni(Mo3N)2,0.0
mp-775017,Fe3Ni(PO4)4,0.0
mp-1225009,Fe3Ni2,0.0
mp-775990,Fe3Ni2Sn(PO4)6,0.0
mp-1224887,Fe3Ni3B2,0.0
mp-1225085,Fe3Ni3Ge2,0.0
mp-1224865,Fe3Ni3P2,0.0
mp-1224927,Fe3Ni3Pt2,0.0
mp-1224770,Fe3NiAs4,0.0
mp-1224768,Fe3NiAs8,0.0
mp-567703,Fe3NiN,0.0
mp-1224771,Fe3NiP4,0.0
mp-1178301,Fe3NiSb2(PO4)6,0.0
mp-1224765,Fe3NiSb8,0.0
mp-1184320,Fe3O,0.0
mp-19306,Fe3O4,0.0
mp-851260,Fe3O5F,0.0
mp-18708,Fe3P,0.0
mp-1188752,Fe3P2PbO14,0.0
mp-1101558,Fe3P4O15,0.0
mp-1204574,Fe3P8O37,0.0
mp-1189324,Fe3Pb(SO7)2,0.0
mp-1224754,Fe3Pd,0.0
mp-16334,Fe3PdN,0.0
mp-1649,Fe3Pt,0.0
mp-579496,Fe3PtN,0.0
mp-865212,Fe3Re,0.0
mp-1184364,Fe3Rh,0.0
mp-1225191,Fe3Rh3S8,0.0
mp-580234,Fe3RhN,0.0
mp-1184373,Fe3S,0.0
mp-1181637,Fe3S2O15,0.0
mp-1184324,Fe3Sb,0.0
mp-775128,Fe3Sb(PO4)6,0.0
mp-1184256,Fe3Se,0.0
mp-2780,Fe3Se4,0.0
mp-1225224,Fe3Si2Ni3,0.0
mp-1193684,Fe3Si2O9,0.0
mp-1225125,Fe3Si4Ir,0.0
mp-1212682,Fe3SiNi,0.0
mp-20883,Fe3Sn,0.0
mp-27505,Fe3Sn2,0.0
mp-21850,Fe3SnC,0.0
mp-1184307,Fe3Te,0.0
mp-1225183,Fe3Te2Se,0.0
mp-1178313,Fe3TeO8,0.0
mp-1184280,Fe3W,0.0
mp-1196849,Fe3W10C3,0.0
mp-20696,Fe3W3C,0.0
mp-28452,Fe3W3N,0.0
mp-1225363,Fe3W5N8,0.0
mp-1043303,Fe4(CuO4)3,0.0
mp-1203829,Fe4(PO5)3,0.0
mp-762231,Fe41O56,0.0
mp-1226402,Fe46(BC3)3,0.0
mp-1212957,Fe4AgXeF5,0.0
mp-1193500,Fe4As3O23,0.0
mp-1078579,Fe4C,0.0
mp-1225226,Fe4Mo,0.0
mp-1225260,Fe4Mo2N,0.0
mp-1225203,Fe4N,0.0
mp-1225147,Fe4Ni4PdS8,0.0
mp-1225419,Fe4Ni5P3,0.0
mp-1225243,Fe4NiSe10,0.0
mp-1181411,Fe4O13,0.0
mp-20885,Fe4P,0.0
mp-1196342,Fe4P2N3O8F9,0.0
mp-504312,Fe4P7O24,0.0
mp-1101549,Fe4P9O32,0.0
mp-850249,Fe4S5,0.0
mp-1225139,Fe4Sb3,0.0
mp-1225212,Fe4Se3Br,0.0
mp-1225135,Fe4Si,0.0
mp-628588,Fe4Si2Sn7O16,0.0
mp-1225166,Fe4Te3S,0.0
mp-1225000,Fe4Te3Se,0.0
mp-1225423,Fe4W2N,0.0
mp-1198168,Fe5(BO3)6,0.0
mp-1178299,Fe5(O4F)2,0.0
mp-705433,Fe5(P2O7)4,0.0
mp-31872,Fe5(P3O11)2,0.0
mp-9913,Fe5B2P,0.0
mp-2794,Fe5C2,0.0
mp-1084832,Fe5Co3,0.0
mp-771671,Fe5Co3O16,0.0
mp-770337,Fe5Ni(PO4)6,0.0
mp-1225371,Fe5Ni4P3,0.0
mp-675307,Fe5Ni7S16,0.0
mp-1095382,Fe5O7,0.0
mp-774308,Fe5O7F3,0.0
mp-1225007,Fe5O8,0.0
mp-1225302,Fe5P3O17,0.0
mp-449,Fe5Si3,0.0
mp-1225714,Fe5SiAs,0.0
mp-1212719,Fe5SiC,0.0
mp-1225379,Fe5SiP,0.0
mp-1097708,Fe65(BN)6,0.0
mp-1225026,Fe6BC,0.0
mp-1225123,Fe6Bi(P3O13)2,0.0
mp-1225401,Fe6ClO12,0.0
mp-1225101,Fe6Ge2N,0.0
mp-636946,Fe6Ge5,0.0
mp-780205,Fe6O11F,0.0
mp-779899,Fe6O7F6,0.0
mp-777905,Fe7(OF7)2,1.0390000000000001
mp-1227244,Fe74W13,0.0
mp-21717,Fe7C3,0.0
mp-1080603,Fe7Co,0.0
mp-1212970,Fe7Ge4,0.0
mp-569594,Fe7Mo6,0.0
mp-1225022,Fe7Ni5P4,0.0
mp-1178254,Fe7O7F,0.0
mp-770783,Fe7P12WO48,0.0
mp-556435,Fe7S8,0.0
mp-1197479,Fe7Sb3P3(BrO6)3,0.0
mp-1200389,Fe7Sb3P3(ClO6)3,0.0
mp-952967,Fe7Se3,0.0
mp-540702,Fe7Se8,0.0
mp-777003,Fe7Te(PO4)12,0.0042999999999999965
mp-1473,Fe7W6,0.0