task_id,pretty_formula,band_gap
mp-3046,Yb3Sn13Rh4,0.0
mp-979938,Yb3Tc,0.0
mp-676370,Yb3Ti3O14,0.0
mp-979941,Yb3V,0.0
mp-1295,Yb4Sb3,0.0
mp-570527,Yb5Au4,0.0
mp-675015,Yb6U3O17,0.0
mp-569159,Yb8Ge3Sb5,0.0
mp-568559,YbAg2,0.0
mp-9776,YbAgGe,0.0
mp-13166,YbAgO2,0.0
mp-1259,YbAl3,0.0
mp-600,YbAs,0.0
mp-1025051,YbB2Rh3,0.0
mp-5364,YbBO3,0.0
mp-865742,YbCdHg2,0.0
mp-5111,YbCuGe,0.0
mp-980384,YbDyPd2,0.0
mp-972051,YbGa2Pd,0.0
mp-20498,YbGeRh,0.0
mp-1102692,YbIn4Ni,0.0
mp-672274,YbIn4Rh,0.0
mp-1584,YbIr2,0.0
mp-11098,YbMgPd,0.0
mp-704504,YbMn2O5,0.0
mp-982377,YbNd3,0.0
mp-865426,YbNdAg2,0.0
mp-4179,YbPO4,0.0
mp-865903,YbPmPt2,0.0
mp-531712,YbPr11Se16,0.0
mp-2235,YbRh2,0.0
mp-1820,YbS,2.2234
mp-1916,YbSb,0.0
mp-286,YbSe,1.9621
mp-972406,YbSi2Ni,0.0
mp-865993,YbSmRh2,0.0
mp-16641,YbSn2Pd,0.0
mp-11973,YbSnRh,0.0
mp-1779,YbTe,1.4688
mp-16472,YbTlS2,0.0
mp-570118,YbTlSe2,0.0
mp-865431,YbZnAu2,0.0
mp-13026,YbZnPt,0.0
mp-28787,Zn2BIr2,0.0
mp-560806,Zn2In2S5,0.0
mp-1191333,Zn2MoSeO7,3.7157
mp-1045893,Zn2Ni9O13,0.0
mvc-14005,Zn2Sb3O8,0.0
mvc-15382,Zn2SnN2,0.0
mvc-13731,Zn2WN2,0.0
mp-680580,Zn3As2,0.13779999999999992
mp-981200,Zn3Cd,0.0
mp-972042,Zn3Cu,0.0
mp-9460,Zn3N2,0.0
mp-2071,Zn3P2,0.3144
mp-30361,Zn8Ag5,0.0
mvc-15869,ZnAgF5,0.0
mp-7372,ZnAs,0.30589999999999984
mp-7262,ZnAs2,0.22489999999999988
mvc-12575,ZnCrO2,0.0
mp-977362,ZnGaRh2,0.0
mp-4008,ZnGeAs2,0.0118999999999998
mp-2979,ZnGeN2,1.6965
mp-4524,ZnGeP2,1.1667
mp-27161,ZnI2,2.9076000000000004
mp-1016926,ZnIrO3,0.0
mp-2133,ZnO,0.7309000000000001
mp-10695,ZnS,2.0186
mp-753,ZnSb,0.04099999999999948
mp-971763,ZnSb3,0.0
mp-1190,ZnSe,1.1663
mp-3595,ZnSiAs2,0.8866
mp-4763,ZnSiP2,1.3636999999999997
mp-1187976,ZnSn3,0.0
mp-5190,ZnSnAs2,0.008700000000000152
mp-13334,ZnSnO3,1.0766999999999998
mp-4175,ZnSnP2,0.7042999999999999
mp-4756,ZnSnSb2,0.0008999999999996787
mp-2176,ZnTe,1.0290000000000004
mp-1048324,ZnWO2,0.0
mp-2557,Zr2Al,0.0
mp-972631,Zr2Co12P7,0.0
mp-14025,Zr2CuS4,0.0
mp-642803,Zr2HBr2,0.0
mp-602268,Zr2In5Ni,0.0
mp-18648,Zr2Ni12P7,0.0
mp-22642,Zr2Se,0.0
mp-21559,Zr2Te,0.0
mp-30362,Zr3Ag,0.0
mp-13470,Zr3Al2,0.0
mp-1630,Zr3Hg,0.0
mp-30748,Zr3Ir,0.0
mp-561418,Zr3O,0.0
mp-645193,Zr4AlNi2,0.0
mp-22233,Zr4Co4Ge7,0.0
mp-16724,Zr5Al3,0.0
mp-972176,Zr5Al3C,0.0
mp-505759,Zr5Sb3,0.0
mp-542816,Zr5SiSb3,0.0
mp-510522,Zr5Sn3,0.0
mp-543001,Zr5Sn4,0.0
mp-13092,Zr6Al2Ni,0.0
mp-653981,Zr6NiCl15,0.0
mp-12972,Zr6Sb2Pt,0.0
mp-583740,Zr7P4,0.0
mp-32967,Zr7Sb4,0.0
mp-30183,ZrAl5Ni2,0.0
mp-567927,ZrAlPt,0.0
mp-977436,ZrAlRu2,0.0
mp-631503,ZrAlW,0.0
mp-17813,ZrAu4,0.0
mp-1472,ZrB2,0.0
mp-2795,ZrC,0.0
mp-1017540,ZrCd,0.0
mp-21591,ZrCrSi2,0.0
mp-601253,ZrGaPt,0.0
mp-2430,ZrGe2,0.0
mp-637736,ZrGeRu,0.0
mp-1024958,ZrHCl,0.0
mp-623134,ZrInCu2,0.0
mp-977475,ZrInPd2,0.0
mp-977543,ZrInRh2,0.0
mp-715,ZrIr2,0.0
mp-30790,ZrMo3,0.0
mp-1102687,ZrNiGe,0.014599999999999724
mp-20697,ZrNiSb,0.06900000000000084
mp-924129,ZrNiSn,0.4954000000000001
mp-2858,ZrO2,3.4737000000000005
mp-1018102,ZrPd2,0.0
mp-30842,ZrPd3,0.0
mp-12109,ZrRe2,0.0
mp-669917,ZrRh,0.0
mp-10706,ZrRu3C,0.0
mp-1186,ZrS2,1.0478000000000005
mp-9921,ZrS3,1.1134000000000004
mp-569671,ZrSb,0.0
mp-31457,ZrSbRu,0.0
mp-1183040,ZrSe,0.0
mp-2076,ZrSe2,0.331
mp-1683,ZrSe3,0.3937
mp-1515,ZrSi2,0.0
mp-19917,ZrSiTe,0.0
mp-1539,ZrTe,0.0
mp-1215204,ZrTi2O,0.0
mp-16548,ZrTiF6,0.0
mp-675,ZrW2,0.0