task_id,composition,band_gap
mp-1206951,GdMgTl,0.0
mp-865883,GdMgZn2,0.0
mp-639892,GdMn12,0.0
mp-1076939,GdMn2,0.0
mp-1238790,GdMn2O4,0.0
mp-976591,GdMn3,0.0
mp-1181730,GdMn4(CuO4)3,0.0
mp-505546,GdMnB4,0.0
mp-613677,GdMnGe,0.0
mp-20553,GdMnSi,0.0
mp-1106263,GdMoC2,0.0
mp-1212636,GdMoO5,0.0
mp-1181339,GdNO5,0.0
mp-542632,GdNi,0.0
mp-543019,GdNi2,0.0
mp-1071438,GdNi4Au,0.0
mp-1102948,GdNi4B,0.0
mp-1206977,GdNiAs,0.0
mp-865177,GdNiB4,0.0
mp-1065668,GdNiC2,0.0
mp-1079303,GdNiGe3,0.0
mp-1212834,GdNiPb,0.0
mp-1184544,GdNp3,0.0
mp-7870,GdO,0.0
mp-1206505,GdO3,0.0
mp-510184,GdOs2,0.0
mp-510401,GdP,0.0
mp-1077329,GdPPd,0.0
mp-16340,GdPPt,0.0
mp-1184525,GdPaRu2,0.0
mp-1184505,GdPaTc2,0.0
mp-1076927,GdPb3,0.0
mp-21427,GdPd3,0.0
mp-1102209,GdRe2,0.0
mp-1191130,GdReB4,0.0
mp-1742,GdRh,0.0
mp-1191219,GdRh3,0.0
mp-20182,GdRh3C,0.0
mp-571283,GdRh5,0.0
mp-1184503,GdRhO3,0.0
mp-646926,GdRu2,0.0
mp-582826,GdRuC2,0.0
mp-510402,GdS,0.0
mp-4796,GdScGe,0.0
mp-22480,GdScSi,0.0
mp-510404,GdSe,0.0
mp-601371,GdSi,0.0
mp-21192,GdSi2,0.0
mp-1079677,GdSi2Ni,0.0
mp-622508,GdSi2Rh3,0.0
mp-1069477,GdSi3Ir,0.0
mp-1190689,GdSi3Ni8,0.0
mp-1079690,GdSiAg,0.0
mp-1184484,GdSiO3,0.0
mp-1224635,GdSiO4,0.0
mp-1224641,GdSiPd,0.0
mp-1071675,GdSiPt,0.0
mp-1189670,GdSiPt2,0.0
mp-19875,GdSiRu,0.0
mp-1071567,GdSn2,0.0
mp-1206580,GdSnGe,0.0
mp-1103503,GdSnPd,0.0
mp-1184508,GdSnPd2,0.0
mp-1079739,GdSnPt,0.0
mp-1079214,GdSnPt2,0.0
mp-866089,GdSnRh2,0.0
mp-1224653,GdTa4O12,0.0
mp-1076964,GdTe2,0.0
mp-1184733,GdTh3,0.0
mp-1224571,GdThN2,0.0
mp-1184491,GdThO3,0.0
mp-1184613,GdThRu2,0.0
mp-510278,GdTiO3,0.0
mp-19966,GdTl,0.0
mp-1018708,GdTlZn,0.0
mp-1224982,GdTm(FeNi4)2,0.0
mp-1184520,GdTmCd2,0.0
mp-1184532,GdTmIr2,0.0
mp-1184489,GdTmRh2,0.0
mp-1184801,GdU3,0.0
mp-1224554,GdUAl4,0.0
mp-1224527,GdUN2,0.0
mp-1224690,GdV2Fe10N,0.0
mp-1191160,GdVB4,0.0
mp-541177,GdVO3,0.0
mp-1212572,GdWC2,0.0
mp-1224503,GdY(CoB)4,0.0
mp-1184538,GdY3,0.0
mp-1224416,GdYAl4,0.0
mp-1224937,GdYCo4,0.0
mp-1184512,GdYCu2,0.0
mp-1224747,GdYCu4,0.0
mp-1224599,GdYH4,0.0
mp-1184526,GdYHg2,0.0
mp-1184732,GdYIr2,0.0
mp-754480,GdYO2,0.0
mp-1184458,GdYRh2,0.0
mp-1184716,GdYRu2,0.0
mp-1076988,GdZn2,0.0
mp-1077244,GdZnGa,0.0
mp-13159,GdZnGe,0.0
mp-1080178,GdZnPd,0.0
mp-1103440,GdZnRh,0.0
mp-1224549,GdZnSi,0.0
mp-1184763,GdZr,0.0
mp-1184599,GdZrO3,0.0
mp-1184742,GdZrRu2,0.0
mp-1071459,GdZrSb,0.0
mp-1079657,Ge(NF3)2,0.0
mp-694895,Ge(WO3)6,0.0
mp-756104,Ge11N11O5,0.0
mp-1212552,Ge12As11I4,0.0
mp-1120824,Ge13Sb13Te32,0.0
mp-767690,Ge2(WO3)9,0.0
mp-1203373,Ge22Rh17,0.0
mp-569901,Ge23Mo13,0.0
mp-1042896,Ge2BiO6,0.0
mp-13688,Ge2Mo,0.0
mp-1543,Ge2Pt,0.0
mp-21673,Ge2Pt3,0.0
mp-1184711,Ge2Sb2O5,0.0
mp-1042897,Ge2SbO6,0.0
mp-1101810,Ge2W,0.0
mp-540687,Ge3(BiTe3)2,0.0
mp-1184561,Ge3As,0.0
mp-1184646,Ge3Au,0.0
mp-976080,Ge3B,0.0
mp-973155,Ge3C,0.0
mp-976783,Ge3F,0.0
mp-1184556,Ge3H,0.0
mp-1184667,Ge3Ir,0.0
mp-1197434,Ge3Ir2S3,0.0
mp-1184671,Ge3Mo,0.0
mp-17094,Ge3Mo5,0.0
mp-18021,Ge3Mo5C,0.0
mp-1184665,Ge3O,0.0
mp-1184652,Ge3Os,0.0
mp-973157,Ge3P,0.0
mp-1224661,Ge3P6H42N12O25,0.0
mp-1212615,Ge3Pb5O12,0.0
mp-1184682,Ge3Pd,0.0
mp-1184728,Ge3Pt,0.0
mp-542587,Ge3Pt2,0.0
mp-973883,Ge3Rh,0.0
mp-624221,Ge3Rh5,0.0
mp-976053,Ge3Te,0.0
mp-489,Ge4Ir,0.0
mp-1104286,Ge4Rh,0.0
mp-1224586,Ge5O11,0.0
mp-1224666,Ge7HN3O20,0.0
mp-1193690,Ge7HO20,0.0
mp-1191730,Ge7O16,0.0
mp-1181291,Ge7O23,0.0
mp-582201,Ge8Pd21,0.0
mp-685371,Ge9(Sb5Te12)2,0.0
mp-15843,Ge9Pd25,0.0
mp-1224396,GeAsW,0.0
mp-1184584,GeAu3,0.0
mp-1184565,GeB,0.0
mp-973738,GeBO3,0.0
mp-973623,GeBi3,0.0
mp-1184562,GeBiO3,0.0
mp-1224414,GeBiPd6,0.0
mp-1181268,GeC4NCl3,0.0
mp-208,GeIr,0.0
mp-1189677,GeN2F5,0.0
mp-1079742,GeN2OF6,0.0
mp-1212495,GeP2,0.0
mp-7542,GeP3,0.0
mp-1184782,GePb3,0.0
mp-1424,GePd,0.0
mp-423,GePd2,0.0
mp-1184557,GePdO3,0.0
mp-542640,GePt,0.0
mp-16315,GePt3,0.0
mp-22585,GeRh2,0.0
mp-1184788,GeRh3,0.0
mp-9935,GeSb,0.0
mp-1184683,GeSb3,0.0
mp-1224339,GeSbTe3,0.0
mp-1184641,GeTeO3,0.0
mp-1194821,H12C2S(NO2)2,4.955299999999999
mp-557822,H12PbC4S4(NO4)2,4.624499999999999
mp-1202436,H14C3NCl5,5.334099999999999
mp-31373,H18SO12,5.218999999999999
mp-1224461,H2CBrCl,4.725099999999999
mp-625082,H2CO,0.022800000000000008
mp-1212399,H2INO2,0.0
mp-1203196,H2Os3C8(SO4)2,2.729
mp-706921,H2RhN2Cl5O,0.0
mp-711343,H2RuC8S3N(ClO)3,0.0
mp-1095432,H2W,0.0
mp-973786,H3Pb,0.0
mp-1224413,H3Pd4,0.0
mp-977343,H3Pt,0.0
mp-1202649,H3Se2NO6,0.0
mp-1079923,H3W,0.0
mp-1238814,H4N,0.0
mp-720615,H4NClO5,5.4922999999999975
mp-1224352,H4Pd3,0.0
mp-1147730,H4Pt,0.0
mp-780738,H4WNCl6,0.0
mp-1181786,H5N2Cl,0.0
mp-1095646,H5W,0.0
mp-1189850,H6C2SeO,4.015499999999999
mp-1012740,H6RuCI3N,0.0
mp-1104418,H6W,0.0
mp-696717,H7O4,0.0
mp-555128,H8C3O2,5.6412999999999975
mp-625819,H8N2O,3.894
mp-625208,H8PtO6,1.9380000000000002
mp-722865,H8Se2N2O5,3.6460000000000004
mp-759603,H9CN5Cl2,4.702999999999999
mp-995200,HC3,0.0
mp-995202,HC6,0.0
mp-1224351,HIN2,0.0
mp-1184680,HIr,0.0
mp-1184598,HOs3,0.0
mp-1184731,HPb,0.0
mp-1212643,HPb3Cl4OF,0.0
mp-699229,HPb3ClO3,2.139
mp-1184548,HPd,0.0
mp-1184656,HPd3,0.0
mp-1184545,HPt3,0.0
mp-24722,HRh,0.0
mp-1007761,HW,0.0
mp-1224395,Hf(AlFe)6,0.0
mp-1224506,Hf(AlNi4)3,0.0
mp-571367,Hf(CoSi)2,0.0
mp-15986,Hf(CuP)2,0.0
mp-19725,Hf(FeGe)6,0.0
mp-504741,Hf(FeSi)2,0.0
mp-1224540,Hf(GaNi4)3,0.0
mp-1184744,Hf(Mg4Al3)4,0.0
mp-22018,Hf(MnGe)6,0.0
mp-753669,Hf(MnSn)6,0.0
mp-1224510,Hf(Nb2B3)4,0.0
mp-1104089,Hf(Ni2As)2,0.0
mp-571147,Hf(SiNi)2,0.0
mp-1212568,Hf(SiO)2,0.0
mp-1224524,Hf(Ti2Se5)2,0.0
mp-1224432,Hf(US)3,0.0
mp-1025167,Hf(VGa2)2,0.0
mp-976724,Hf(VH2)2,0.0
mp-1224425,Hf10(AlSi)3,0.0
mp-1194467,Hf10SiMo3,0.0
mp-30703,Hf11Ga10,0.0
mp-1224756,Hf14Cu51,0.0
mp-1194066,Hf2(Co7B2)3,0.0
mp-1194313,Hf2(Ni7B2)3,0.0
mp-1203331,Hf2(NiAs)3,0.0
mp-1200507,Hf2(NiP)3,0.0
mp-1224532,Hf2(TiGa)3,0.0
mp-1224559,Hf20Co5P11,0.0
mp-1203605,Hf21Re25,0.0
mp-1212512,Hf27(Si3P5)2,0.0
mp-29807,Hf27P16,0.0
mp-13155,Hf2Ag,0.0
mp-12772,Hf2Al,0.0
mp-846,Hf2Al3,0.0
mp-1224324,Hf2Al3Ag,0.0
mp-1224327,Hf2Al3Au,0.0
mp-1189539,Hf2Al3C5,0.0
mp-1223820,Hf2Al3Cu,0.0
mp-1223828,Hf2Al3Ni,0.0
mp-1223870,Hf2Al3Pd,0.0
mp-1223802,Hf2Al3Zn,0.0
mp-568991,Hf2Al4C5,0.0
mp-1097449,Hf2AlMo,0.0
mp-1097097,Hf2AlRe,0.0
mp-1223834,Hf2AlSi,0.0
mp-30383,Hf2Au,0.0
mp-1212567,Hf2Be17,0.0
mp-1096396,Hf2BeRe,0.0
mp-1096190,Hf2BeZn,0.0
mp-1072744,Hf2Bi,0.0
mp-631558,Hf2BiB,0.0
mp-1223850,Hf2CN,0.0
mp-13137,Hf2CS,0.0
mp-1018156,Hf2Cd,0.0
mp-1190841,Hf2Co,0.0
mp-607990,Hf2Co3Si4,0.0
mp-1205422,Hf2Co7,0.0
mp-1184620,Hf2CoCu,0.0
mp-864835,Hf2CoIr,0.0
mp-1093932,Hf2CoNi,0.0
mp-1184586,Hf2CoOs,0.0
mp-29154,Hf2CoP,0.0
mp-864877,Hf2CoRe,0.0
mp-1093737,Hf2CoRh,0.0
mp-1097390,Hf2CoRu,0.0
mp-866088,Hf2CoTc,0.0
mp-1223823,Hf2Cr3Si,0.0
mp-1212482,Hf2Cr4Si5,0.0
mp-1096515,Hf2CrIr,0.0
mp-30581,Hf2Cu,0.0
mp-17801,Hf2CuGe4,0.0
mp-864939,Hf2CuIr,0.0
mp-1097409,Hf2CuMo,0.0
mp-1096418,Hf2CuNi,0.0
mp-864974,Hf2CuOs,0.0
mp-977567,Hf2CuRe,0.0
mp-1184615,Hf2CuRh,0.0
mp-1207334,Hf2CuSi3,0.0
mp-1104535,Hf2CuSi4,0.0
mp-1206073,Hf2CuSiAs2,0.0
mp-1184609,Hf2CuTc,0.0
mp-1223824,Hf2Fe3Si,0.0
mp-1223923,Hf2FeC2S,0.0
mp-1097438,Hf2FeCo,0.0
mp-1093742,Hf2FeCu,0.0
mp-864890,Hf2FeIr,0.0
mp-865179,Hf2FeOs,0.0
mp-1097527,Hf2FeRe,0.0
mp-1184678,Hf2FeRh,0.0
mp-983362,Hf2FeTc,0.0
mp-30572,Hf2Ga,0.0
mp-11441,Hf2Ga3,0.0
mp-1224596,Hf2Ga3Co,0.0
mp-1223908,Hf2Ga3Cu,0.0
mp-1018709,Hf2GaSb3,0.0
mp-1069811,Hf2H2Pd,0.0
mp-1224333,Hf2HC,0.0
mp-22050,Hf2In5,0.0
mp-22156,Hf2InC,0.0
mp-1212597,Hf2InCu2,0.0
mp-1097432,Hf2InMo,0.0
mp-1185055,Hf2InNi2,0.0
mp-1212691,Hf2InPd2,0.0
mp-1095861,Hf2IrOs,0.0
mp-981539,Hf2IrPd,0.0
mp-865178,Hf2IrRh,0.0
mp-973434,Hf2IrRu,0.0
mp-1094222,Hf2Mg,0.0
mp-1097289,Hf2MgRe,0.0
mp-1192157,Hf2Mn,0.0
mp-1184602,Hf2MnCo,0.0
mp-1096246,Hf2MnFe,0.0
mp-1095824,Hf2MnNi,0.0
mp-1184587,Hf2MnOs,0.0
mp-1096065,Hf2MnRe,0.0
mp-977572,Hf2MnRh,0.0
mp-864684,Hf2MoIr,0.0
mp-1095819,Hf2MoPd,0.0
mp-1184588,Hf2MoPt,0.0
mp-865130,Hf2MoRh,0.0
mp-864647,Hf2N,0.0
mp-672696,Hf2Nb3Ge4,0.0
mp-1096004,Hf2NbIn,0.0
mp-510041,Hf2Ni2Sn,0.0
mp-1205858,Hf2Ni7,0.0
mp-1184611,Hf2NiIr,0.0
mp-1093970,Hf2NiMo,0.0
mp-1096420,Hf2NiOs,0.0
mp-5918,Hf2NiP,0.0
mp-1095886,Hf2NiRh,0.0
mp-1224473,Hf2NiS4,0.0
mp-1191415,Hf2Os,0.0
mp-865131,Hf2OsRh,0.0
mp-1184604,Hf2OsRu,0.0
mp-504659,Hf2P,0.0
mp-1079076,Hf2PbC,0.0
mp-11454,Hf2Pd,0.0
mp-1097245,Hf2PdRh,0.0
mp-1070103,Hf2Pt3,0.0
mp-1093833,Hf2ReHg,0.0
mp-861978,Hf2ReIr,0.0
mp-977544,Hf2ReNi,0.0
mp-864927,Hf2ReOs,0.0
mp-1184592,Hf2RePd,0.0
mp-1096469,Hf2RePt,0.0
mp-1184619,Hf2ReRu,0.0
mp-973443,Hf2ReTc,0.0
mp-1190626,Hf2Rh,0.0
mp-975897,Hf2RuRh,0.0
mp-1206519,Hf2Sb3,0.1841
mp-1070907,Hf2Sb3Pd,0.0
mp-567220,Hf2SbP,0.0
mp-1200760,Hf2Sc3Si4,0.0
mp-1224670,Hf2ScGa3,0.0
mp-1206927,Hf2Se,0.0
mp-1224485,Hf2Se3,0.0
mp-1212445,Hf2Si4Mo3,0.0
mp-14589,Hf2Si4Ni3,0.0
mp-31022,Hf2Si4Ru3,0.0
mp-1224317,Hf2SiAs3,0.0
mp-1181094,Hf2SiH,0.0
mp-1224372,Hf2SiMo3,0.0
mp-1224364,Hf2SiNi3,0.0
mp-4893,Hf2SnC,0.0
mp-1018710,Hf2TaN3,0.0
mp-1184567,Hf2TcIr,0.0
mp-1184612,Hf2TcNi,0.0
mp-977541,Hf2TcOs,0.0
mp-1184594,Hf2TcPd,0.0
mp-1096071,Hf2TcPt,0.0
mp-864916,Hf2TcRh,0.0
mp-867327,Hf2TcRu,0.0
mp-567584,Hf2Te,0.0
mp-1224444,Hf2Te3,0.0
mp-1093574,Hf2TiIr,0.0
mp-1199653,Hf2TiNi3,0.0
mp-1078712,Hf2TlC,0.0
mp-1207072,Hf2U,0.0
mp-1224430,Hf2V3Ge,0.0
mp-1224435,Hf2V3Ru,0.0
mp-1093828,Hf2VIr,0.0
mp-1097571,Hf2VRe,0.0
mp-1097293,Hf2VRh,0.0
mp-1093586,Hf2VTc,0.0
mp-1014231,Hf2Zn,0.0
mp-1097324,Hf2ZnHg,0.0
mp-1096095,Hf2ZnMo,0.0
mp-866012,Hf2ZnRe,0.0
mp-1096292,Hf2ZnRh,0.0
mp-1184568,Hf2ZnTc,0.0
mp-567970,Hf3(Al2C3)2,0.0
mp-530409,Hf3(Bi5Cl9)2,0.0
mp-1204826,Hf3(CrGa2)2,0.0
mp-1190672,Hf3(CrGa3)2,0.0
mp-10379,Hf3(Cu2Ge)2,0.0
mp-15987,Hf3(Cu2Si)2,0.0
mp-10245,Hf3(CuSi)4,0.0
mp-1212656,Hf3(Mn2Si3)2,0.0
mp-637052,Hf3(MnGa3)2,0.0
mp-21659,Hf3(NbGe2)2,0.0
mp-1193581,Hf3(Ni10B3)2,0.0
mp-10076,Hf3(NiGe)4,0.0
mp-1200384,Hf3(VGa2)2,0.0
mp-1191713,Hf3(VGa3)2,0.0
mp-1184564,Hf3Ag,0.0
mp-1184670,Hf3Al,0.0
mp-8462,Hf3Al2,0.0
mp-642493,Hf3Al3C5,0.0
mp-1191450,Hf3AlAu2,0.05879999999999973
mp-1224464,Hf3AlGe5,0.0
mp-1224436,Hf3AlMo8,0.0
mp-1079110,Hf3AlN,0.0
mp-582067,Hf3As,0.0
mp-1190267,Hf3As2,0.0
mp-976725,Hf3Au,0.0
mp-22409,Hf3B2Ir5,0.0
mp-1184626,Hf3Be,0.0
mp-976419,Hf3Bi,0.0
mp-976422,Hf3C,0.0
mp-554342,Hf3Cd3AgF20,0.0
mp-1184729,Hf3Co,0.0
mp-1224454,Hf3CoS6,0.0
mp-1184650,Hf3Ga,0.0
mp-1224422,Hf3Ga3Pd2Pt,0.0
mp-1202616,Hf3Ge,0.0
mp-976273,Hf3Ge2,0.0
mp-1224353,Hf3GeMo8,0.0
mp-1184632,Hf3Hg,0.0
mp-1184661,Hf3I,0.0
mp-1105078,Hf3In4,0.0
mp-1094220,Hf3Mg,0.0
mp-1224388,Hf3N2,0.0
mp-30644,Hf3Nb2Ga3,0.0
mp-1184747,Hf3Ni,0.0
mp-27166,Hf3Ni7,0.0
mp-1195404,Hf3NiSb7,0.0
mp-20672,Hf3P2,0.0
mp-1184772,Hf3Pb,0.0
mp-1184553,Hf3Pt,0.0
mp-17045,Hf3Rh5,0.0
mp-1195520,Hf3Sb7Pd,0.0
mp-1184681,Hf3Sc,0.0
mp-766090,Hf3Sc4O12,4.190799999999999
mp-1224480,Hf3ScGa12,0.0
mp-1224346,Hf3ScSi4,0.0
mp-1184547,Hf3Se,0.0
mp-1184668,Hf3Si,0.0
mp-2105,Hf3Si2,0.0
mp-9605,Hf3Si3Ni2,0.0
mp-1224428,Hf3SiMo8,0.0
mp-1184633,Hf3Sn,0.0
mp-1184552,Hf3Ta,0.0
mp-1224459,Hf3TaCo8,0.0
mp-1224446,Hf3TaFe8,0.0
mp-28919,Hf3Te2,0.0
mp-1184698,Hf3Th,0.0
mp-1212187,Hf3Ti2Ga3,0.0
mp-1224556,Hf3TiTe20,0.0
mp-1224470,Hf3TiV8,0.0
mp-976106,Hf3Tl,0.0
mp-722912,Hf3Zn3C,0.0
mp-1014252,Hf3ZnN,0.0
mp-1224508,Hf4(Ru4C)3,0.0
mp-1224331,Hf4AgPd,0.0
mp-1224329,Hf4AlSi,0.0
mp-1224399,Hf4C3N,0.0
mp-1224384,Hf4CN3,0.0
mp-977049,Hf4Co4Ge7,0.0
mp-1103031,Hf4CoP,0.0
mp-1103352,Hf4CuP,0.0
mp-1224354,Hf4CuSi3,0.0
mp-1079688,Hf4CuSi4,0.0
mp-1224493,Hf4FeS8,0.0
mp-1224386,Hf4GeSb7,0.0
mp-1224391,Hf4N3,0.0
mp-571038,Hf4NbGe4,0.0
mp-1224437,Hf4Ni3As8,0.0
mp-1102542,Hf4NiP,0.0
mp-1224677,Hf4NiRh,0.0
mp-1194182,Hf4Si7Ni4,0.0
mp-1224468,Hf4UC5,0.0
mp-1224671,Hf4USi4,0.0
mp-1224496,Hf4ZnGa11,0.0
mp-510052,Hf5(In2Rh)2,0.0
mp-2361,Hf5Al3,0.0
mp-1212439,Hf5Al3C,0.0
mp-977347,Hf5Al3N,0.0
mp-505333,Hf5CoAs3,0.0
mp-1212466,Hf5CoP3,0.0
mp-1105851,Hf5CuSb3,0.0
mp-31469,Hf5CuSn3,0.0
mp-29068,Hf5FeTe3,0.0
mp-22337,Hf5Ga3,0.0
mp-1189978,Hf5GaSn3,0.0
mp-1739,Hf5Ge3,0.0
mp-737,Hf5Ge4,0.0
mp-1212499,Hf5Ir3,0.0
mp-761032,Hf5N5O2,0.0
mp-1188693,Hf5NiSb3,0.0
mp-567490,Hf5Re24,0.0
mp-976128,Hf5Sc,0.0
mp-1224544,Hf5Sc5Ge6,0.0
mp-1224451,Hf5Sc5Si6,0.0
mp-1224366,Hf5ScSi4,0.0
mp-15965,Hf5Si3,0.0
mp-1212442,Hf5Si3N,0.0
mp-9952,Hf5ZnSb3,0.0
mp-1224498,Hf5Zr5Ga6,0.0
mp-678358,Hf5ZrTe8,0.0
mp-1193847,Hf6Al16Co7,0.0
mp-1212464,Hf6Al16Ir7,0.0
mp-973769,Hf6Al16Os7,0.0
mp-1193241,Hf6Al16Pd7,0.0
mp-1194470,Hf6Al16Pt7,0.0
mp-983480,Hf6Al16Rh7,0.0
mp-1079155,Hf6Al2Pt,0.0
mp-1212451,Hf6Be15Co8,0.0
mp-1212455,Hf6Be15Cu8,0.0
mp-1212450,Hf6Be15Ni8,0.0
mp-1212443,Hf6Be15Pd8,0.0
mp-672657,Hf6Co16Ge7,0.0
mp-672689,Hf6Co16Si7,0.0
mp-1192795,Hf6Co23,0.0
mp-31383,Hf6CoBi2,0.0
mp-1206239,Hf6CoSb2,0.0
mp-14504,Hf6Cr5Si7,0.0
mp-640158,Hf6Fe16Si7,0.0
mp-1206135,Hf6FeSb2,0.0
mp-1193188,Hf6Ga16Co7,0.0
mp-1193078,Hf6Ga16Ni7,0.0
mp-1192479,Hf6Ga16Pd7,0.0
mp-1193089,Hf6Ga16Rh7,0.0
mp-580092,Hf6Ni16Ge7,0.0
mp-15297,Hf6NiSb2,0.0
mp-580744,Hf6Si7Ni16,0.0
mp-1194036,Hf6Zn16Cu7,0.0
mp-1016107,Hf6Zn6N,0.0
mp-1212463,Hf7Au10,0.0
mp-1200988,Hf7Cu10,0.0
mp-1198091,Hf7Ni10,0.0
mp-623814,Hf8FeTe6,0.0
mp-616615,Hf8MnTe6,0.0
mp-1224623,Hf8Mo5S,0.0
mp-27165,Hf8Ni21,0.0
mp-1224613,Hf8Ni4N,0.0
mp-676713,Hf8PbO24,0.0
mp-973675,Hf9AsW4,0.0
mp-1224546,Hf9B2Mo3,0.0
mp-1224535,Hf9B2W3,0.0
mp-18024,Hf9BMo4,0.0
mp-1193665,Hf9BOs4,0.0
mp-1212438,Hf9BW4,0.0
mp-973612,Hf9CoMo4,0.0
mp-1193334,Hf9CoRe4,0.0
mp-1192784,Hf9CoW4,0.0
mp-1193359,Hf9GeMo4,0.0
mp-976584,Hf9Mo4As,0.0
mp-1212453,Hf9Mo4O3,0.0
mp-1192670,Hf9Mo4P,0.0
mp-1194092,Hf9Mo4S,0.0
mp-1212479,Hf9Mo4Se,0.0
mp-1193918,Hf9PW4,0.0
mp-1193562,Hf9Re4B,0.0
mp-1212448,Hf9Re4O3,0.0
mp-1193199,Hf9Re4P,0.0
mp-1192774,Hf9Re4S,0.0
mp-1193800,Hf9Re4Se,0.0
mp-1193862,Hf9Re4Si,0.0
mp-1194003,Hf9SiMo4,0.0
mp-17105,Hf9V4S,0.0
mp-1212452,Hf9W4O3,0.0
mp-1193767,Hf9W4S,0.0
mp-1194253,Hf9W4Se,0.0
mp-13156,HfAg,0.0
mp-1093765,HfAgAu2,0.0
mp-249,HfAl,0.0
mp-12657,HfAl2,0.0
mp-1224303,HfAl2Zn,0.0
mp-568718,HfAl3,0.0
mp-1025457,HfAl5Ni2,0.0
mp-10872,HfAlAu2,0.0
mp-1224502,HfAlCo,0.0
mp-5221,HfAlCo2,0.0
mp-1224481,HfAlCu,0.0
mp-10887,HfAlCu2,0.0
mp-1224642,HfAlFe,0.0
mp-983358,HfAlFe2,0.0
mp-1224426,HfAlIr,0.0
mp-982870,HfAlIr2,0.0
mp-1224402,HfAlMo,0.0
mp-1078767,HfAlNi,0.0
mp-5748,HfAlNi2,0.0
mp-1224385,HfAlPd,0.0
mp-571619,HfAlPt,0.0
mp-1206362,HfAlPt2,0.0
mp-1224494,HfAlRh,0.0
mp-864671,HfAlRh2,0.0
mp-864909,HfAlRu2,0.0
mp-1096748,HfAlTc2,0.0
mp-1224316,HfAlW4,0.0
mp-1224321,HfAlZn,0.0
mp-9954,HfAs,0.0
mp-1212611,HfAs2O9,0.0
mp-1079823,HfAsOs,0.0
mp-1205740,HfAsPd,0.0
mp-1079079,HfAsRu,0.0
mp-1007755,HfAu,0.0
mp-1018153,HfAu2,0.0
mp-1079296,HfAu3,0.0
mp-1224390,HfAu9,0.0
mp-1001600,HfB12,0.0
mp-1994,HfB2,0.0
mp-1004377,HfB6,0.0
mp-1232375,HfBC,0.0
mp-1184625,HfBO3,0.0
mp-1017578,HfBRh3,0.0
mp-1018057,HfBe,0.0
mp-1878,HfBe13,0.0
mp-2553,HfBe2,0.0
mp-631510,HfBe2Bi,0.0
mp-1096152,HfBe2Pt,0.0
mp-2025,HfBe5,0.0
mp-1184576,HfBeIr2,0.0
mp-865163,HfBeRh2,0.0
mp-12571,HfBeSi,0.0
mp-1212407,HfBi,0.0
mp-1192314,HfBi2,0.0
mp-1184694,HfBi3,0.0
mp-961721,HfBiRh,0.0
mp-864915,HfBr3,0.0
mp-1007758,HfCd,0.0
mp-865164,HfCdCu2,0.0
mp-1095894,HfCdPd2,0.0
mp-865174,HfCdRh2,0.0
mp-1064981,HfCo,0.0
mp-2337,HfCo2,0.0
mp-20730,HfCo2Sn,0.0
mp-1184721,HfCo3,0.0
mp-9801,HfCoAs,0.0
mp-1102310,HfCoGe,0.0
mp-571185,HfCoSb,0.0
mp-1103227,HfCoSi,0.0
mp-22315,HfCoSn,0.0
mp-819,HfCr2,0.0
mp-1239146,HfCrCuS4,0.0
mp-1224440,HfCrCuSe4,0.0
mp-1203073,HfCrGa2,0.0
mp-1200972,HfCrGe2,0.0
mp-1212416,HfCrP,0.0
mp-1204660,HfCrSi2,0.0
mp-1097610,HfCu2Au,0.0
mp-1184704,HfCu3,0.0
mp-1096033,HfCuAu2,0.0
mp-1077453,HfCuGe,0.0
mp-1080469,HfCuGe2,0.0
mp-1080723,HfCuGeAs,0.0
mp-30582,HfCuHg2,0.0
mp-569933,HfCuP,0.0
mp-22489,HfCuSi,0.0
mp-20401,HfCuSi2,0.0
mp-1079332,HfCuSiAs,0.0
mp-1018713,HfCuSn,0.0
mp-1212428,HfFeAs,0.0
mp-1206605,HfFeF6,0.0
mp-22191,HfFeGe,0.0
mp-1203443,HfFeGe2,0.0
mp-22434,HfFeP,0.0
mp-1212435,HfFeSb,0.0
mp-1102314,HfFeSi,0.0
mp-28378,HfFeSi2,0.0
mp-510188,HfGa,0.0
mp-11440,HfGa2,0.0
mp-1224309,HfGa2Ag,0.0
mp-21660,HfGa2Co,0.0
mp-30269,HfGa2Ni,0.0
mp-11387,HfGa3,0.0
mp-1018712,HfGa4Co,0.0
mp-1025193,HfGa5Co,0.0
mp-1025176,HfGa5Ni,0.0
mp-12952,HfGaAu,0.0
mp-1097567,HfGaAu2,0.0
mp-1095158,HfGaCo,0.0
mp-1018714,HfGaCu,0.0
mp-1093846,HfGaCu2,0.0
mp-865998,HfGaIr2,0.0
mp-1079860,HfGaNi,0.0
mp-3498,HfGaNi2,0.0
mp-20381,HfGaPd,0.0
mp-1093556,HfGaPd2,0.0
mp-571609,HfGaPt,0.0
mp-1079842,HfGaRh,0.0
mp-865019,HfGaRh2,0.0
mp-865010,HfGaRu2,0.0
mp-13683,HfGe2,0.0
mp-683893,HfGe2Rh,0.0
mp-1204281,HfGe2Ru,0.0
mp-631549,HfGeB2,0.0
mp-1102841,HfGeIr,0.0
mp-1095449,HfGeMo,0.0
mp-1212426,HfGeO2,0.0
mp-9755,HfGeO4,4.161099999999999
mp-1095196,HfGeOs,0.0
mp-17746,HfGePd,0.0
mp-21340,HfGePt,0.0
mp-1102945,HfGeRh,0.0
mp-1080489,HfGeRu,0.0
mp-1184684,HfGeRu2,0.0
mp-7918,HfGeS,0.0
mp-7917,HfGeSe,0.0
mp-13964,HfGeTe,0.0
mp-27731,HfH2,0.0
mp-977573,HfH3,0.0
mp-1016841,HfHgO3,0.0
mp-568002,HfI3,0.0
mp-574025,HfInAu2,0.0
mp-864715,HfInCo2,0.0
mp-640024,HfInNi2,0.0
mp-864734,HfInPd2,0.0
mp-1224456,HfInPt2,0.0
mp-865066,HfInRh2,0.0
mp-1097363,HfInRu2,0.0
mp-1007786,HfIr,0.0
mp-2126,HfIr3,0.0
mp-1036470,HfMg14AlO16,0.0
mp-1036120,HfMg14MnO16,0.0
mp-981375,HfMg3,0.0
mp-1038357,HfMg30BiO32,0.0
mp-1038444,HfMg30GaO32,0.0
mp-1038355,HfMg30SbO32,0.0
mp-1098345,HfMg30SnO32,0.0
mp-1099258,HfMg3O4,0.0
mp-1032931,HfMg6AlO8,0.0
mp-1033263,HfMg6BO7,0.0
mp-1017167,HfMg6C,0.0
mp-1099238,HfMg6FeO8,0.0
mp-1099293,HfMg6Ni,0.0
mp-983123,HfMgAu2,0.0
mp-1097072,HfMgCo2,0.0
mp-865020,HfMgIr2,0.0
mp-865049,HfMgPd2,0.0
mp-1184572,HfMgPt2,0.0
mp-865050,HfMgRh2,0.0
mp-1191460,HfMn,0.0
mp-11449,HfMn2,0.0
mp-1097109,HfMnCo2,0.0
mp-1205992,HfMnF6,4.940799999999999
mp-1197835,HfMnGa2,0.0
mp-1080769,HfMnGe,0.0
mp-1197660,HfMnGe2,0.0
mp-1184581,HfMnIr2,0.0
mp-1212189,HfMnP,0.0
mp-865091,HfMnRh2,0.0
mp-20192,HfMnSi,0.0
mp-1203090,HfMnSi2,0.0
mp-631324,HfMnTl,0.0
mp-1224314,HfMo,0.0
mp-2363,HfMo2,0.0
mp-1224308,HfMoC2,0.0
mp-7032,HfMoP,0.0
mp-631294,HfMoSe,0.0
mp-2828,HfN,0.0
mp-1224307,HfNb,0.0
mp-1224360,HfNb2VC4,0.0
mp-1224363,HfNb4CN4,0.0
mp-1224347,HfNbB2,0.0
mp-38818,HfNbB4,0.0
mp-1224334,HfNbC2,0.0
mp-1224340,HfNbCN,0.0
mp-1224419,HfNbN2,0.0
mp-850283,HfNbO4,0.0
mp-22637,HfNbP,0.0
mp-1095729,HfNbRe2,0.0
mp-1184582,HfNbRu2,0.0
mp-865094,HfNbTc2,0.0
mp-1018056,HfNi,0.0
mp-30708,HfNi2,0.0
mp-1096255,HfNi2Au,0.0
mp-1078574,HfNi2Sb,0.0
mp-4828,HfNi2Sn,0.0
mp-12174,HfNi3,0.0
mp-1212191,HfNiAs,0.0
mp-1102032,HfNiP,0.0
mp-961732,HfNiPb,0.0
mp-1212231,HfNiSb,0.0
mp-1184793,HfNp3,0.0
mp-1184669,HfNpO3,0.0
mp-11452,HfOs,0.0
mp-1007693,HfOs3,0.0
mp-9953,HfP,0.0
mp-1102018,HfP2,0.0
mp-1184666,HfP3,0.0
mp-1080463,HfPOs,0.0
mp-15963,HfPRu,0.0
mp-864926,HfPaTc2,0.0
mp-1007692,HfPd,0.0
mp-1207004,HfPd2,0.0
mp-11453,HfPd3,0.0
mp-865166,HfPd5,0.0
mp-1018054,HfPt3,0.0
mp-1224475,HfPt4,0.0
mp-1093729,HfPtAu2,0.40700000000000003
mp-961715,HfPtPb,0.0
mp-1689,HfRe2,0.0
mp-1079831,HfReSi,0.0
mp-21569,HfReSi2,0.0
mp-11457,HfRh,0.0
mp-1027,HfRh3,0.0
mp-2802,HfRu,0.0
mp-1007657,HfRu3,0.0
mp-1206743,HfS,0.0
mp-1079914,HfSb,0.0
mp-2180,HfSb2,0.0
mp-976582,HfSb3,0.0
mp-1212193,HfSbPd,0.0
mp-10367,HfSbRh,0.0
mp-31456,HfSbRu,0.0
mp-1224300,HfSc,0.0
mp-1224342,HfSc3Si8,0.0
mp-1096123,HfScAu2,0.0
mp-865165,HfScCo2,0.0
mp-1224337,HfScGe4,0.0
mp-1097378,HfScHg2,0.0
mp-865000,HfScIr2,0.0
mp-1093706,HfScNi2,0.0
mp-865001,HfScOs2,0.0
mp-1096376,HfScPd2,0.0
mp-865041,HfScRh2,0.0
mp-865030,HfScRu2,0.0
mp-1224306,HfScSi2,0.0
mp-1184559,HfScTc2,0.0
mp-1097645,HfScTl2,0.0
mp-1096131,HfScZn2,0.0
mp-1069,HfSi2,0.0
mp-631455,HfSi2Br,0.0
mp-22258,HfSiMo,0.0
mp-1189249,HfSiOs,0.0
mp-10457,HfSiPd,0.0
mp-13472,HfSiRh,0.0
mp-1212161,HfSiRu,0.0
mp-7916,HfSiS,0.0
mp-13962,HfSiSe,0.0
mp-1097298,HfSiTc2,0.0
mp-13963,HfSiTe,0.0
mp-1102732,HfSiW,0.0
mp-1224294,HfSiW4,0.0
mp-21328,HfSn,0.0
mp-1079810,HfSn2,0.0
mp-1095852,HfSnAu2,0.0
mp-1079038,HfSnIr,0.0
mp-1096723,HfSnPd2,0.0
mp-20889,HfSnPt,0.0
mp-2960,HfSnRh,0.0
mp-866221,HfSnRh2,0.0
mp-866219,HfSnRu2,0.0
mp-1224292,HfTa,0.0
mp-1018718,HfTa2N3,0.0
mp-1224304,HfTa2VC4,0.0
mp-1224291,HfTaB2,0.0
mp-1224283,HfTaB4,0.0
mp-1224285,HfTaC2,0.0
mp-1224289,HfTaCN,0.0
mp-1093685,HfTaFe2,0.0
mp-1224427,HfTaFe4,0.0
mp-1097146,HfTaMn2,0.0
mp-1224296,HfTaN2,0.0
mp-1095910,HfTaOs2,0.0
mp-865025,HfTaRe2,0.0
mp-1184573,HfTaRu2,0.0