task_id,pretty_formula,band_gap
mp-769297,Sr5Ta4O15,2.9673000000000003
mp-769307,Ca4Ta2O9,4.5005000000000015
mp-769333,Ca4Ta2O9,4.1648
mp-769344,Ba4Ta2O9,3.3706
mp-769346,Y2Ge2O7,3.7313
mp-769394,Ba4Ta2O9,3.5999
mp-769396,Y2Ge2O7,2.9452000000000003
mp-769437,P5(WO6)4,2.4669000000000003
mp-769445,Li11Fe12(BO3)12,0.7972999999999999
mp-769462,Li2Nb6NiO18,1.2693000000000003
mp-769466,Y2Ge2O7,3.8961
mp-769469,NaMnPCO7,0.6396999999999999
mp-769477,Na3Mn2P2(CO7)2,0.5319
mp-772384,LiNbCoO4,2.263100000000001
mp-772403,NbVO4,1.0090999999999997
mp-775499,Na2MnPCO7,0.6327999999999999
mp-775519,Li2Ti3NiO8,2.1304000000000003
mp-775528,Na2MnO2,0.3169999999999997
mp-775532,LiNbCoO4,1.019
mp-775537,Na2FePCO7,2.4051
mp-775575,Rb2CoB12(H2O3)10,3.3287
mp-780137,Li3Mn4(BO3)4,0.7077
mp-780181,Na2Cr4O13,1.7377
mp-780202,Li2FeO2F,1.6584
mp-780230,Hf2N2O,1.9989
mp-780231,Hf2N2O,1.9967000000000008
mp-780232,Hf2N2O,2.0775
mp-780234,Hf2N2O,2.1500000000000004
mp-780240,Gd2P4O13,3.2682
mp-780274,Hf2N2O,1.9789999999999992
mp-780283,Li4V3OF11,1.8083
mp-780292,Li8Mn5Fe3(BO3)8,3.0066
mp-780295,Li2VO2F,1.5210000000000004
mp-780329,Li2MnV(P2O7)2,0.35409999999999986
mp-780387,YbHfO3,4.5175
mp-780440,Li8MnFe7(BO3)8,3.1364
mp-780443,Li8MnFe7(BO3)8,3.0651
mp-780444,V6O5F19,2.0069
mp-780454,SrCa2I6,3.7009
mp-780471,LiV2P4(HO8)2,1.17
mp-780479,LiV2P4(HO8)2,1.1173
mp-780482,LiVP2HO8,1.3679
mp-780485,LiVP2HO8,1.3803
mp-972199,CsTbS2,2.2052000000000005
mp-974307,NdCuTeO,1.4320999999999993
mp-974381,Rh2S3,0.4180999999999999
mp-974434,RuF4,0.5254
mp-974603,HgF2,0.40170000000000017
mp-976267,Si12HN8,0.06229999999999958
mp-976291,LiAlH4,3.9597
mp-996955,HAuO2,1.263
mp-996961,LiAuO2,1.4041
mp-996965,AgBiO2,0.7798000000000003
mp-996966,KAgO2,0.5995
mp-996968,AgBiO2,1.6797999999999995
mp-996970,AgBiO2,1.2407
mp-996985,HAuO2,1.2747
mp-996986,LiCuO2,0.15580000000000016
mp-996987,LiCuO2,0.5072000000000001
mp-996988,LiAgO2,0.0945999999999999
mp-996992,LiAgO2,0.4686999999999999
mp-996997,LiAgO2,0.5004000000000001
mp-997007,AgPtO2,0.05220000000000002
mp-997011,CuBrO2,0.4388
mp-997016,AgClO2,0.8628
mp-997017,AgClO2,0.02540000000000001
mp-997020,CuClO2,0.6518
mp-997021,AgPbO2,0.13240000000000007
mp-997033,AuBrO2,0.708
mp-997042,TlCuO2,0.4258000000000002
mp-997055,CuBiO2,0.6113999999999997
mp-997084,RbAgO2,0.6655
mp-997086,SrAgO2,0.5637000000000001
mp-997092,AuClO2,0.8944000000000001
mp-997094,SrAuO2,1.4237000000000002
mp-997102,KAgO2,1.1747
mp-997106,AgRhO2,0.4969000000000001
mp-997108,RbAgO2,1.1682
mp-997159,CrAuO2,1.0618000000000003
mp-997394,NbAgF6,2.8553
mp-997630,ZnO,0.5251999999999999
mp-998151,CaTlCl3,3.9626
mp-998153,TlGeBr3,0.7685
mp-998156,RbSnCl3,0.9881000000000002
mp-998197,RbCaCl3,4.9587
mp-998231,KGeCl3,1.4962
mp-998233,InGeCl3,2.2299
mp-998241,MnInF3,2.4740999999999995
mp-998352,BaHfS3,1.1346999999999996
mp-1006613,Na2Al2(SiO4)3,0.1768
mp-1006616,Pr(NO5)3,0.3448
mp-1011374,CeSe2,0.11050000000000004
mp-1016076,CrN2,0.3933
mp-1016212,Sn3H6CNO7,1.0351
mp-1017565,In2Se3,0.15280000000000005
mp-1020704,Sr2Ge(S2O7)4,3.4268
mp-1025039,PbS2,0.6331999999999995
mp-1025150,Cu2WSe4,0.08119999999999994
mp-1025154,UTl2O4,1.5508000000000002
mp-1025179,Rb2NpO4,0.3748
mp-1025221,Zn(NF2)2,1.7544
mp-1025277,Pr2AlNO3,1.6148999999999996
mp-1025286,Rb2ZnF4,4.7125
mp-1025349,Sr2ZrO4,3.4081
mp-1025387,TbO3,0.1884
mp-1025421,SmO3,0.17679999999999996
mp-1028422,Te4Mo3WSe4,0.6334
mp-1030398,Te2MoWS2,0.3826000000000001
mp-1030447,Te3Mo2Se,0.5955999999999997
mp-1030470,Te4Mo3W(SeS)2,0.3123
mp-1030504,MoW3Se8,1.4655
mp-1030505,Te2Mo(WSe2)3,0.8183000000000002
mp-1030508,Te2MoWSe2,1.7938
mp-1030509,TeMoWSe3,1.5865
mp-1030513,MoWSe3S,1.0623000000000002
mp-1030517,TeMoWSeS2,0.11709999999999975
mp-1030519,MoWSe3S,1.0995
mp-1030521,Te2Mo3W(Se2S)2,0.30569999999999986
mp-1030522,MoWSe3S,1.1533000000000002
mp-1030523,Te2Mo3WSe6,0.7014
mp-1030535,MoWSe3S,0.6985999999999999
mp-1030565,MoWSe4,1.1418
mp-1030566,MoW3(SeS)4,1.2196000000000002
mp-1030567,MoW3(Se3S)2,0.6160000000000001
mp-1030568,Te2MoW3(Se2S)2,0.03859999999999975
mp-1030569,Te2MoW3(SeS2)2,0.1358999999999999
mp-1040452,CeSe2,0.4456
mp-3195,Sr11(CdSb2)6,0.3131999999999997
mp-3764,Te3P2O11,3.3954
mp-3765,Sr(PO3)2,5.6893
mp-5818,Tl4SnS4,1.7518999999999996
mp-600022,SiO2,5.8663
mp-600053,SiO2,5.522
mp-600054,SiO2,5.677300000000002
mp-600055,SiO2,5.6383
mp-600057,SiO2,5.8304
mp-600070,SiO2,5.876
mp-600072,SiO2,5.8422
mp-600080,SiO2,5.6971
mp-600084,SiO2,5.5489999999999995
mp-600098,SiO2,5.7534
mp-600109,SiO2,5.566
mp-600111,SiO2,5.5173000000000005
mp-600218,SbH12C4NF4,1.6613
mp-600236,Cu2H10C6S3N4,2.9410000000000003
mp-600523,CoH32C8S4(NO5)2,1.9056
mp-601200,PH15C18INCl2,2.359
mp-604395,NiH18C4S6(N2O)4,1.2888
mp-604518,UNiH14O9F4,2.3034
mp-605056,Si2H25C10N,4.6311
mp-607785,Rb6LiNd11Se12(Cl4O9)4,3.1141
mp-613569,K2SbF5,4.6305
mp-622122,U2(P2O7)3,0.2629999999999999
mp-622375,Mn(GaS2)2,0.5010000000000003
mp-623787,Cs2K2B10O17,4.7867000000000015
mp-626297,Ba(H8O5)2,3.6623
mp-626362,FeHO2,1.2659000000000002
mp-626570,FeHO2,0.2343000000000001
mp-626573,FeHO2,0.9577
mp-626574,Fe8H10O17,1.3151
mp-628784,K3TiCl6,0.33540000000000003
mp-630376,Sb6Pb6S17,0.7809999999999997
mp-630852,Sr2Co(PO4)2,3.0105
mp-636289,WO3,1.3166
mp-648384,KB5O8,4.2839
mp-648912,Os5C15SO15,2.1273
mp-675571,Gd2Zr2O7,2.7142
mp-675648,Pr9Be4O20,0.030899999999999924
mp-680193,Ca4Al6O13,3.605
mp-686465,Gd2Ti2O7,2.4235
mp-699378,Fe2NiO4,0.5483000000000002
mp-699445,K2P2H2O7,4.9118
mp-705014,Ni2P4C11S2(OF8)3,2.5554
mp-705201,FePO4,2.7331000000000003
mp-755346,Li5BO4,5.184900000000002
mp-755357,NdAsO4,3.7403
mp-755358,LuAlO3,3.6479
mp-755364,NdSeO,0.3370999999999995
mp-755374,Sm2TeO6,2.5849
mp-761974,LiCoPO4,2.8762
mp-761987,LiNiPO4,3.1173
mp-762044,Li3Sb2(PO4)3,3.5488000000000004
mp-762058,Na2Ti2O5,3.8524
mp-762152,LiNiPO4,3.391
mp-762168,LiNiPO4,3.6481
mp-764854,Li5Fe8(BO3)8,1.3013
mp-764862,Li5Fe8(BO3)8,1.2275999999999998
mp-764864,LiFe2(BO3)2,0.7990999999999999
mp-764873,LiFe4(BO3)4,1.6113000000000002
mp-764874,Li3Fe8(BO3)8,1.5659999999999998
mp-764878,LiFe2(BO3)2,1.6772999999999998
mp-764880,Li5Fe8(BO3)8,1.6572000000000002
mp-764885,LiFe8(BO3)8,1.2682999999999998
mp-764888,Li3Fe4(BO3)4,1.3589
mp-768936,Sn2(SO4)3,2.3405
mp-768939,Sn2(SO4)3,2.3469
mp-768965,BaYCl5,4.652
mp-768974,BaY3Cl11,4.2205
mp-769005,Ba2YCl7,4.5822
mp-769484,NaMnPCO7,0.9045
mp-769485,Na2MnPCO7,0.5295000000000001
mp-769500,NaMnPCO7,0.9376
mp-769506,Na2FePCO7,2.3895
mp-769511,NaLiV2O6,3.0701
mp-769518,Na3Mn2P2(CO7)2,0.1291
mp-769520,Na3Mn2P2(CO7)2,0.8269
mp-769523,Na3Mn2P2(CO7)2,0.7748
mp-769531,Na3Mn2P2(CO7)2,0.7589
mp-775608,Li2MnCr3O8,0.08610000000000008
mp-775613,NaMnPCO7,0.9207
mp-775614,Na2MnPCO7,0.6119000000000001
mp-775623,LiTiMnO4,0.5552000000000001
mp-775643,Na2MnPCO7,0.5584999999999999
mp-775644,V3CuO8,0.8436999999999997
mp-778694,Li7Mn8(BO3)8,0.07760000000000011
mp-778701,Li6MnV3(PO4)6,0.20340000000000025
mp-778762,LiMn2(BO3)2,0.3411000000000002
mp-778778,Mn6OF11,0.4104000000000001
mp-778813,Li7Mn8(BO3)8,0.2933000000000001
mp-778856,Li3Mn4(BO3)4,0.4795
mp-778867,Li3Mn4(BO3)4,0.2851999999999999
mp-778881,Li5Mn2(PO4)3,4.0627
mp-778883,Li8Mn3Fe5(BO3)8,3.1622000000000003
mp-780496,Fe3OF5,1.4064
mp-780529,Li3Mn4(BO3)4,0.008799999999999919
mp-780535,BaLu2O4,2.9254
mp-780539,LiVF4,2.4354
mp-780544,LiMn3CrO8,0.7275
mp-853202,LiMn2(BO3)2,0.22310000000000008
mp-853222,Li2Mg11(WO4)12,3.5656
mp-853234,Li2FeF4,2.6491
mp-853256,Li3Fe2(PO4)3,2.4981
mp-853270,Li5Mn6(BO3)6,0.3240000000000001
mp-853850,Li4V3P8O29,1.0766
mp-866659,H34C19,5.678999999999999
mp-972831,SiGeN2O,3.6459
mp-998429,NiAgF3,1.8227
mp-998601,KCaCl3,4.7456
mvc-13588,YCu3(WO4)6,0.04499999999999993
mvc-14431,Y2Cu3(WO4)6,0.28390000000000004
mp-1025029,PrHSe,1.9171
mp-13614,Rb2Be3Cd2F12,5.2365
mp-20535,TbSiRh,0.022199999999999772
mp-21875,Y4GaCo4,0.0009999999999994458
mp-557346,ZnS,2.0266
mp-561197,TaF5,5.533
mp-571286,SiC,1.8003999999999998
mp-6096,TlHg(AsS2)3,1.6747999999999998
mp-642822,CaC2,2.4995
mp-643108,Yb4Mg3H14,3.0929
mp-645942,Rb6U2W4O21,2.1665
mp-646669,P28Pb5I2,1.0279000000000007
mp-649747,K2SbF5,4.2759
mp-653758,Ru2S4Cl13,0.0005000000000000004
mp-654372,K2CoCl4,0.8275000000000001
mp-667424,P2Os4C15O13F6,2.5993
mp-669351,Rb3Ce(PSe4)2,1.3493000000000002
mp-675872,Li2UBr6,0.14450000000000007
mp-676552,Nd2Th8O19,2.7912
mp-676629,Sm2Th8O19,2.8412
mp-684055,Tl7Bi3I16,2.2654
mp-685031,Tb8Se15,0.0871000000000004
mp-686969,Fe2O3,1.3902
mp-691028,Sr6La14Mg7Ti13O60,1.8065
mp-693393,Na13Ca7S12Cl2O48F,4.6104
mp-693759,Zr12Si2Bi2P16PbO72,2.9575
mp-705448,LiNiPO4,3.4732000000000003
mp-705467,MnPO4,0.3351000000000001
mp-705479,SnH6Cl4O3,3.2231
mp-705510,Rb4NaW2N5O,0.05810000000000004
mp-705514,SbHC3(NCl3)3,2.0316
mp-705520,Sn3H4(NO5)2,2.657
mp-705524,CuH7C3SN3O4,0.0046
mp-705586,SrLa9Mg2Ga6(FeO14)2,0.8176000000000005
mp-705610,Al2NiO4,2.9658999999999995
mp-705625,MgMn2O4,0.3109000000000002
mp-715923,WO3,1.131
mp-7223,Ca3AsN,0.7166999999999999
mp-722571,ReH(CO)4,2.9087
mp-743582,TiMnCr(PO4)3,2.3007
mp-743837,K3Nb4Mo4(PO4)12,0.6223000000000001
mp-753920,Tm2SeO2,2.1147
mp-754550,Tb3TaO7,3.3976999999999995
mp-755252,DyHO2,4.159000000000002
mp-755340,Tb2SeO2,2.1447000000000003
mp-761286,Li2FeBO4,2.3149
mp-762190,LiP4WO12,4.0667
mp-762250,Sn2N2O,0.03880000000000017
mp-763584,LiCoSiO4,1.3102
mp-763589,LiCoSiO4,1.1943
mp-764982,Mn2OF2,1.1267
mp-765307,Li5V3P8O29,1.0863999999999998
mp-765355,Li4V3P8O29,0.9650999999999998
mp-765395,Li4V3P8O29,0.8230999999999999
mp-765414,Li4V3P8O29,0.6819999999999999
mp-766722,Li2Mn3F8,3.3394
mp-768051,Li3TiCo3O8,1.7178999999999998
mp-769418,Ti6Fe8O21,1.1071999999999995
mp-769465,Na5Mn2P2(CO7)2,0.02729999999999988
mp-7700,SiB6,0.05679999999999996
mp-770181,LiFe2(SO4)3,0.19700000000000006
mp-770346,Li2VBO4,2.0372000000000003
mp-770542,MnP2O7,1.2775
mp-771414,Li4NbCo3O8,0.1905000000000001
mp-772452,Li6V3P8O29,1.4841
mp-772453,Li6V3P8O29,1.2014999999999998
mp-772454,Li6V3P8O29,1.0314
mp-772460,Li6V3P8O29,0.9861
mp-772461,Li6V3P8O29,0.009700000000000042
mp-772469,Li6V3P8O29,0.4661000000000002
mp-772471,Li6V3P8O29,0.9502
mp-772560,Li9V12Cr7O48,0.4709999999999999
mp-772658,Li9Mn7V12O48,0.15759999999999996
mp-772688,Li6V3P8O29,0.7957000000000001
mp-773098,Li4Mn3VO8,0.8244000000000002
mp-773242,Li3V3CoO8,0.8013999999999997
mp-773329,Li6V3P8O29,1.3586
mp-773378,Li6V3P8O29,1.1178
mp-773379,Li6V3P8O29,1.3211
mp-773531,Li6V3P8O29,1.4152
mp-773558,Li6V3P8O29,1.1502
mp-773579,Li6V3P8O29,1.0198999999999998
mp-773609,Li6V3P8O29,1.3312
mp-773637,Li6V3P8O29,1.4081
mp-773691,LiFe(SiO3)2,2.6008000000000004
mp-773693,Li6V3P8O29,0.7807999999999999
mp-773783,Li6V3P8O29,0.9332
mp-773932,Li6V3P8O29,1.1004
mp-773934,Li6V3P8O29,1.0847
mp-773962,Li6V3P8O29,1.0267
mp-773963,Li6V3P8O29,0.7631999999999999
mp-774063,V4O7F5,1.5214
mp-774079,Li5V3P8O29,0.9957
mp-774118,Li5V3P8O29,0.4178
mp-774177,Li5V3P8O29,0.7105
mp-774179,Li5V3P8O29,0.9162
mp-774190,Li5V3P8O29,0.9132
mp-778711,Fe4OF7,0.8093999999999999
mp-778894,Li8Mn5Fe3(BO3)8,2.9955000000000003
mp-778896,Li32Mn3Cr13O48,1.0174999999999996
mp-778903,Mn12O7F17,0.11939999999999995
mp-778999,Ti17(NO4)6,0.17609999999999992
mp-779024,Ti17(NO4)6,0.22949999999999984
mp-779067,Li4MnFe3(BO3)4,3.3969
mp-779088,Li2MnV(PO4)3,1.0833
mp-779125,DyP5O14,5.3851
mp-779147,Ho2P4O13,5.4866
mp-779180,Li32Mn3Cr13O48,1.0414
mp-779221,P2H9(CBr)3,2.5125
mp-779231,Gd2W4O15,2.8791
mp-779247,Li2MnV(P2O7)2,0.5012999999999999
mp-779261,Nb(BO2)5,3.3055
mp-779268,Li8Mn5Fe3(BO3)8,3.0752
mp-781498,LiMn(PO3)3,3.7802
mp-781788,K2LiNb6(PO8)3,2.2356000000000003
mp-851055,Li4V3P8O29,0.8090999999999999
mp-851057,Li5V3P8O29,0.8751000000000001
mp-851212,Li9V6(P8O29)2,0.2127
mp-851247,Li4V3P8O29,0.7025
mp-851253,Li4V3P8O29,0.4388
mp-851254,Li4V3P8O29,0.4561
mp-851255,Li4V3P8O29,1.0
mp-851256,Li4V3P8O29,0.4873
mp-851266,Li4V3P8O29,0.8056999999999999
mp-851274,Li9Cr19O48,0.3188
mp-851288,Li7V3P8O29,0.7224999999999999
mp-863294,RbVGa(PO5)2,0.6353000000000001
mp-863408,LiSiBiO4,3.0357000000000003
mp-863909,Co3(AsO4)2,1.6742000000000004
mp-864603,YbH2,2.9087
mp-865301,TmBr3,2.9866
mp-977408,NbTlO3,0.11379999999999944
mp-977455,PaAgO3,0.9148999999999998
mp-978489,SiPbO3,1.1781000000000006
mp-978493,SiSnO3,1.7769999999999992
mp-978504,SmGaO3,2.7793999999999994
mp-978952,SnPbO3,1.7927
mp-985670,SnH16C4(NO4)3,0.2438
mp-998745,TlZnF3,3.9139
mp-998761,TlNiF3,3.2754000000000003
mvc-11229,YFeO3,1.0499
mvc-14010,Zn2Sn3O8,1.7840000000000005
mvc-15097,Y2Cu3(WO4)6,0.23309999999999986
mvc-15109,YCu3(WO4)6,0.2159
mvc-15116,Y4(Cu2O5)3,0.8247
mvc-15195,Y4V6O21,0.5603
mvc-15235,YCr3O9,0.6439999999999999
mp-1038310,Mg30AlCuO32,1.1014999999999997
mp-1080045,SrHBrO,4.3167
mp-1080149,Yb(CuS)2,1.0754
mp-1080313,CeSe2,0.8440000000000003
mp-1094040,Zn2In2O5,0.5936999999999997
mp-1096896,CrN2,0.07180000000000009
mp-1099625,Sm2Ni2O5,0.6478000000000002
mp-1099664,KNa7V8O24,0.22269999999999968
mp-1099822,Rb2Mo2O5,0.4625000000000004
mp-1100402,YHgB,0.35639999999999983
mp-1102232,HCN,3.6233
mp-11714,SiC,2.2226000000000017
mp-11875,CO,6.1315
mp-12455,TmCuS2,1.6565999999999992
mp-14213,Sr4GeP4,1.0529000000000002
mp-16929,Pr3Si6N11,2.9903999999999997
mp-17008,CaTeO3,3.2938
mp-17605,CsNd(PO3)4,5.3001
mp-18782,LiFeO2,1.2854
mp-19001,SrMnO3,0.8108
mp-19259,Sr4Al6WO16,3.5419
mp-19450,ScTl(MoO4)2,3.6201
mp-20652,PbF3,1.8822
mp-23091,Ba2BiSbO6,1.7763
mp-23706,YH3,0.0405000000000002
mp-26285,LiBi2(PO4)3,0.27790000000000004
mp-27047,Li2CuPO4,1.4867000000000004
mp-27409,RbNiBr3,0.4723000000000002
mp-29910,Sr4I6O,3.5856
mp-30986,Zn3S2O9,3.3649
mp-32881,Si3O,0.1637000000000004
mp-505130,CsReO4,4.1562
mp-510733,VCuO4,0.1654
mp-540636,WOF4,3.1048
mp-540850,TlPF6,6.3698
mp-550714,PbO,2.2295
mp-550925,NaScAs2O7,3.4393
mp-551736,K4CO4,2.3019
mp-5540,SrB4O7,7.117000000000001
mp-554747,Li5La3Nb2O12,3.2624
mp-555026,AlF3,7.4176
mp-557953,Hg3TeO6,0.6009
mp-558374,SiO2,5.5665
mp-558411,Y2Zr2O7,2.7008
mp-558608,Nb2PbO6,2.5365
mp-569675,Tl2Hg2PdCl8,1.6654999999999998
mp-571091,CdI2,2.3649
mp-572601,SbPC3S3N3Cl3O,3.3261
mp-5977,Nd2Zr2O7,3.3252
mp-603263,BaFe(Si2O5)2,3.4805
mp-615746,RbBiF4,2.8659
mp-643071,Yb4Mg4Fe3H22,1.4719
mp-649933,BaCeC2O6F,0.3249
mp-651970,ZnCoP2O7,2.9504
mp-680339,Mn4Si7,0.7978000000000005
mp-6814,AgCNO,2.8211
mp-695366,Na3LiMg4(Si2O5)6,0.5315000000000003
mp-699330,LiCr3O8,1.8563
mp-715614,Fe3O4,0.8898999999999999
mp-7240,NaRuO2,0.005300000000000082
mp-752831,LiCuF2,1.5931
mp-753163,HoIO,2.2234
mp-755216,TmBiO3,2.4418
mp-756175,Zr2Bi2O7,2.7929
mp-756702,PrBrO,3.5244
mp-758796,LiCuPO4,0.019400000000000084
mp-7599,BeO,7.0845
mp-761057,Sr5Nb4O15,2.8004
mp-762770,LiMn5P3O13,2.9249
mp-763019,LiMnF3,3.0923
mp-763046,Fe4OF7,0.8003
mp-763255,LiCoSiO4,1.3725
mp-763740,LiFeSiO4,2.9769
mp-764293,Li2VOF4,2.1899
mp-764401,MnFe(PO4)2,0.8949
mp-767102,Li2MnO2F,0.8420999999999998
mp-767784,LiVSiO4,2.7783999999999995
mp-769721,LiMnBO3,1.9726
mp-770201,Li2AlVO4,2.3742
mp-770993,Eu3NbO7,0.008599999999999941
mp-772801,LuBiO3,2.3018000000000005
mp-773145,Li2Cr4O13,1.3539000000000003
mp-773562,Fe2OF3,1.4066
mp-776773,LiFeF3,3.1084
mp-777595,LiFeF4,3.4054
mp-777804,LiFeF4,3.4886
mp-779517,Sr3Hf2O7,3.6592
mp-780553,LiFe2O2F3,1.6681
mp-7811,SrSO4,3.9294
mp-8002,LiGaO2,3.7357
mp-9489,NaSmTiO4,2.4268
mp-972032,Tl(IO3)3,2.1722
mp-981511,Y3SbO7,2.8011
mp-984332,Rb2Sr2(CO3)3,4.6134
mvc-11423,TiO2,2.6333
mvc-4256,Zn3Ge3(SbO6)2,1.4674000000000005
mvc-4333,Y2Si3(NiO4)3,2.7573
mvc-4440,Zn3Ge3(MoO6)2,1.3045
mvc-5319,Ca3Mn2(GeO4)3,0.0798000000000001
mp-1015076,CrN2,0.005300000000000082
mp-1020112,Mg2SiO4,4.457700000000001
mp-1020588,ZrSiO4,3.8593
mp-1020592,Sr4Li2Si4N8O,2.5722000000000005
mp-1020610,Zn2SiO4,2.2492
mp-1020712,ZnSiN2,3.1948
mp-1025567,NbCl2O,0.9081
mp-1029334,Zn2SbN3,0.1737000000000002
mp-1029387,TaZn2N3,2.3341
mp-1029403,RbGe2N3,1.0678
mp-1029665,Sr3BN3,0.4152
mp-1029763,ZnSiN2,0.4885999999999999
mp-1029857,Rb3W2N5,2.0278
mp-1074,RbSi,1.35
mp-11321,Y3TaO7,3.5002
mp-1174534,Li4MnCo2O7,0.4043999999999999
mp-11773,Nd3GaO6,3.6476
mp-1184486,GdErO3,0.3186
mp-1184778,HoErO3,1.4369
mp-1186557,PmErO3,1.6850999999999998
mp-1193615,NaMnP2NO10,0.7218
mp-1205997,NaUF6,0.8948
mp-1207664,YbBeNF6,2.2762
mp-1210814,NaPO6,0.9915
mp-1211174,LiNd(MoO4)2,3.0941
mp-12317,SrCN2,3.2056
mp-13108,SrHfO3,3.7328
mp-13252,SnB4O7,3.5712
mp-14368,SbAsO5,1.7419999999999998
mp-14415,Pr2Be2GeO7,4.2674
mp-15704,BeSiN2,3.5620999999999987
mp-15998,RbV(CuS2)2,1.1052
mp-16135,Sm3NbS3O4,2.286
mp-16179,SrCu2GeSe4,0.5884999999999998
mp-16668,Yb2Cu4As3,0.03440000000000065
mp-16964,SiO2,5.6779
mp-17709,Na2ZnSiO4,3.1365
mp-17771,NaMg4(AsO4)3,3.1922
mp-18126,Tb3CuSnSe7,1.0153
mp-18685,SrCu2GeS4,1.0462999999999996
mp-20191,Si3Ru2,0.3775000000000013
mp-20797,Yb(NdS2)2,1.7644000000000002
mp-22889,ZnCl2,4.04
mp-24064,PHF2,3.7857
mp-24128,ReH4NO4,4.0859000000000005
mp-27529,PI3,2.2746
mp-27726,SO2,2.8368
mp-28514,Ba(BrO3)2,4.3347
mp-2852,C3N4,2.8993
mp-36252,Nd5CuSe8,0.9416000000000002
mp-3652,Ta9(FeS3)2,0.014899999999999913
mp-36577,Sr(AsS2)2,1.7016
mp-38162,Sm5CuSe8,1.0027999999999997
mp-4223,Na3PO4,4.1727
mp-510519,Rb2V3O8,2.056
mp-542942,ZnCdC4(SeN)4,3.0605
mp-5461,Rb3TaO8,2.9856
mp-548403,CaCO3,5.717699999999999
mp-550998,TiZn(BiO3)2,1.9356
mp-553278,Nd4Se3O4,1.3232999999999997
mp-554150,Nd3CuGeS7,1.6757999999999995
mp-555726,NaClO3,5.7061
mp-557930,SiO2,5.6398
mp-560625,RePbClO4,3.3739
mp-561224,TeO2,2.978
mp-571558,HgBr2,1.682
mp-583071,CaAlH5,3.3519
mp-605437,FeHO2,1.9678000000000004
mp-616607,VZn2P2O9,2.8577
mp-625111,H8PtO6,1.6046999999999998
mp-625257,FeHO2,1.9919999999999995
mp-625268,FeHO2,1.7592
mp-625269,FeHO2,1.9551
mp-625284,FeHO2,1.7590000000000001
mp-625377,HNO,3.4135
mp-625385,HNO,3.2573
mp-625392,Lu(HO)3,4.9552000000000005
mp-625403,Nd(HO)3,3.5877
mp-625405,V2H3O5,1.4956
mp-625406,La(HO)3,3.7571
mp-625409,Sm(HO)3,3.7582
mp-625414,Mn2HO4,0.15920000000000026
mp-625415,Tb(HO)3,3.7111
mp-625445,H2SO4,5.577000000000001
mp-625452,Pr(HO)3,3.812
mp-625465,Tm(HO)3,3.8243
mp-625474,H2SO4,5.5461
mp-625513,Te(HO2)2,1.7656
mp-625526,Te(HO2)2,1.7198000000000002
mp-625619,H4N2O3,0.6079
mp-625621,GaHO2,1.8006999999999995
mp-625717,Mn(HO)2,1.5237
mp-625830,Zn(HO)2,2.9697
mp-625837,Be(HO)2,5.410900000000002
mp-625924,H5NO,4.8125
mp-626755,SrH4O3,4.1764
mp-633099,Sb2Pb2O7,1.6296000000000008
mp-635393,Ca2PI,1.6319000000000004
mp-638424,Sb2S2O9,4.0335
mp-642690,CsGeI3,1.7002
mp-643158,PH8IN4,4.0455000000000005
mp-674842,Er2Zr2O7,2.8423000000000003
mp-675625,KNO3,3.0389
mp-675645,Tb2PbS4,2.0344000000000007
mp-675778,NaY2F7,7.0565
mp-676023,NaY3F10,5.5671
mp-676723,Li2SO4,5.55
mp-6941,Y2Si3N4O3,2.7943
mp-696125,Li10Si(PO6)2,5.2544
mp-697139,PHN2,4.732799999999999
mp-697853,Ba3WO6,2.5551
mp-703260,PbWO4,3.6216
mp-707339,AsH6NO4,3.6288
mp-723049,BeH4NF3,6.1675
mp-7440,NaP,0.8684000000000003
mp-752658,Y2SeO2,2.156
mp-753277,LiAgF2,1.2067
mp-753316,Li2AgF5,0.893
mp-753845,LiCuO2,0.2729999999999999
mp-753960,Li2H2SeO5,3.9349
mp-754637,NaCuP2O7,0.6747000000000001
mp-755205,Zr2N2O,1.6914999999999996
mp-755392,LiSnPO4,3.8739
mp-756500,Sr2CaI6,3.7063
mp-756591,Sm3NbO7,2.5867
mp-756951,LiSbO3,2.7496
mp-757149,Sr2Hf7O16,4.4155
mp-757242,Li5AuO4,2.0061
mp-760418,Ba2SrI6,2.9057
mp-762225,BaCO3,4.4638
mp-762888,LiCoSiO4,0.8709000000000002
mp-762914,LiNiPO4,3.5079
mp-762921,LiMnF3,3.888
mp-763784,LiMn2F6,0.955
mp-764853,Cr(PO3)3,3.0964
mp-765073,Li2MnO2F,2.2011000000000003
mp-765899,LiCoO2,0.8952
mp-767186,LiMn3(OF3)2,1.2142
mp-767688,NaNdPCO7,0.18589999999999995
mp-767974,LiLa4CoO8,1.4673999999999996
mp-767987,LiNiPO4,3.3388000000000004
mp-767988,LiV(CO3)2,1.9665
mp-767993,Li2Fe(CO3)2,3.515000000000001
mp-768353,YTmO3,3.1706000000000003
mp-770040,Lu2WO6,3.7831
mp-770272,RbFeO2,2.0451
mp-771068,Li2FeBO4,2.63
mp-771075,Li8MnO6,0.7562999999999999
mp-771264,Na3ZnPCO7,3.7689999999999997
mp-771755,LiMnFeO4,1.4258
mp-772246,TaVO4,1.8279
mp-772391,Li2Mn3NiO8,1.0297
mp-772750,Li3MgPCO7,5.4592
mp-772840,Sm2Ge2O7,3.6725
mp-773418,Li2NiSnO4,1.4935999999999998
mp-774121,LiFe2O2F3,1.7478000000000002
mp-774125,LiNbFeO4,0.7841999999999998
mp-774138,V2O3F,1.0315
mp-774145,Li2V3SbO8,1.5627000000000004
mp-774160,NiTeO4,1.1891999999999996
mp-775196,Li2MnCr3O8,0.2761999999999998