task_id,pretty_formula,band_gap
mp-761671,Li3CoPO5,0.0
mp-761672,Li4Ti3Cu3(WO8)2,0.0
mp-764578,MnOF,0.0047999999999999154
mp-764628,Na(FeO2)2,0.0
mp-764633,V2OF5,1.5375999999999999
mp-764635,MnPH2CO6,2.8688000000000002
mp-764637,Li3Fe8O3F13,2.2539999999999996
mp-764645,Li3MnF7,1.4076999999999997
mp-764646,Mn2CrNi3(PO4)6,0.0
mp-764680,V3OF11,2.1733000000000002
mp-767934,Li3Co13O16,0.0
mp-767935,LiCoCuO4,0.0
mp-767936,Li4Fe2Cu3Sb3O16,0.0
mp-767941,Mn21O40,0.0
mp-767945,Mg7Co17O32,0.0
mp-767946,Mn2V3Sb(PO4)6,0.0
mp-767947,LiCo2(PO4)2,0.49810000000000004
mp-767952,NaMnPCO7,0.9158999999999999
mp-767955,Li3Fe2(NiO4)2,0.0
mp-767956,Li4Fe2Ni3O10,0.0
mp-768503,Lu(PO3)3,5.741099999999999
mp-768516,Ti2(SO4)3,0.0
mp-768536,Cs3LaO3,1.8359999999999999
mp-768589,Li3CuAsCO7,0.14360000000000017
mp-768592,Na2SnBPO7,1.8591999999999997
mp-768599,LiCuCSO7,0.0
mp-768636,LiBi2BO5,1.7318000000000007
mp-768665,LiBiB2O5,1.8355000000000001
mp-768680,CrP2S7,0.0
mp-768684,Ce(ClO4)3,0.0
mp-768774,LiBi4B3O11,3.496
mp-768785,LiSn2(SO4)3,0.0
mp-768788,Li3Bi(BO3)2,3.9539000000000004
mp-768794,LiBiB2O5,3.393
mp-768797,Li3Bi(BO3)2,3.2588999999999997
mp-768814,Y2GeO5,3.3975999999999997
mp-768827,BaSrI4,3.1709999999999994
mp-768876,Na2Bi2C4SO16,0.0
mp-768883,Sn2(SO4)3,0.0
mp-768952,Bi2B2O7,0.0
mp-768996,NaBiAsCO7,0.0
mp-769003,BaY3Cl11,3.7241999999999997
mp-769008,Li4Bi3O8,0.0
mp-771871,FeCoO4,0.0
mp-771872,V2NiO6,2.691
mp-771876,Li5NiO4,1.8688000000000002
mp-771902,Li4Ti3Cr2Fe3O16,0.0
mp-771907,Li4Mn5Sn3O16,0.0
mp-771910,Ti2Mn3Co3O16,0.0
mp-771911,Ni3(PO4)2,3.3564999999999996
mp-771921,LiNiO2,0.0
mp-771925,Li4Cr3Fe3(SbO8)2,1.678
mp-771927,Li7Ni5O12,0.0
mp-771929,Li4Fe5Cu3O16,0.0
mp-771938,Mn5SnO12,1.4667999999999999
mp-771965,Sb2P4H3O16,0.0
mp-771975,Na2TbO3,0.0
mp-771982,Mn3Ni(PO4)4,0.0
mp-771984,Li3Nb4FeO12,0.0
mp-771985,Ni7(PO4)6,0.0
mp-771988,MnCo(PO4)2,0.0
mp-772001,Mn3Cu(PO4)4,0.0
mp-772002,CrCu3(PO4)4,0.0
mp-772003,Li5Co7O12,0.0
mp-772013,V3Sb(PO4)6,0.9349000000000001
mp-772105,Li2Zr2O5,3.8868000000000005
mp-772150,Li2Ti13O22,0.0
mp-776188,Li4Fe(TeO4)3,0.0
mp-776194,Li4Ti3Mn2Sn3O16,1.3479999999999999
mp-776198,V5CrO12,1.1851000000000003
mp-776199,AgClO3,3.1130999999999998
mp-776201,Zr2N2O,0.9144999999999999
mp-776220,Hf2N2O,2.2156000000000002
mp-776239,Zr2N2O,1.5627999999999997
mp-776293,Na4Sb2C4SO16,0.47319999999999984
mp-776310,La8Cu3O16,0.0
mp-776322,Li2V5CoO12,0.0
mp-776330,Li4Cu2C4SO16,0.0
mp-776371,Li2Nb2(PO4)3,0.0
mp-776387,Ti2N2O,0.36300000000000043
mp-776405,Li6Sb2S7,0.0
mp-776406,TePO5,0.0
mp-776432,Na2LiCuPCO7,0.23419999999999974
mp-776445,Li4Ti2Cu3Sb3O16,0.0
mp-776452,Ca2Ti6N2O11,1.8034999999999997
mp-776456,Ti2O3,0.0
mp-781070,LiV2P4(HO8)2,0.9447000000000001
mp-781073,Li5CoO4,1.5191999999999999
mp-781075,Fe5O7F3,0.0
mp-781077,Fe5O7F3,0.0
mp-781080,Fe4O5F3,0.0
mp-781106,Li32Mn5Cr11O48,0.0
mp-781108,Na4Mn2As(CO4)4,0.0
mp-781125,Ti3VCo2(PO4)6,0.0
mp-781284,MnFe3Ni2(PO4)6,0.0
mp-781494,Li4Ti3Mn3(CuO8)2,0.09759999999999991
mp-781502,Li2Mn3(BO3)3,0.11210000000000009
mp-781507,Fe4O5F3,0.0
mp-781591,Li3Co2(SiO4)2,0.0
mp-781593,Li4Co5Te3O16,0.0
mp-781594,LiMn3(BO3)3,0.18090000000000006
mp-781601,Mn8O13F3,0.0
mp-781602,Mn8O13F3,0.0
mp-781605,Co2O3F,0.0
mp-781606,Fe4O5F3,0.0
mp-781613,Li4Fe3Co5O16,0.0
mp-781617,Li5Mn6(BO3)6,0.0
mp-781682,LiMn3(BO3)3,0.17310000000000003
mp-781684,LiNiH12(SO7)2,0.47409999999999997
mp-781691,Li6Cr5O12,0.0
mp-608080,Al3(PO4)4,0.020799999999999486
mp-608461,PaCl2O,0.0
mp-608516,CsGaCl4,4.491
mp-608551,Ti(AlBr4)2,0.34120000000000006
mp-613306,KAg3Te2,0.0
mp-613785,Yb3Si2ClO8,0.0
mp-615789,Ba2(CuO2)3,0.0
mp-615884,CsLiCrO4,3.0633999999999997
mp-616220,Rb3(Cu4Se3)2,0.0
mp-616702,Na10Co4O9,1.3618000000000001
mp-616718,K3Np(MoO5)2,0.35970000000000013
mp-617022,TeMoCl7O,2.4981999999999998
mp-617352,Te3WICl6,0.0
mp-621864,Si4Mo2P4O23,2.6818999999999997
mp-622196,KHgC3(SN)3,1.9119000000000002
mp-622591,BaTbF6,0.0
mp-648984,LaSiAs3,0.0
mp-649165,Fe2TeO5,1.8884999999999996
mp-649472,KCuPO4,0.0
mp-649654,KVS2O9,1.8157999999999999
mp-652774,CsVP2O7,1.8684000000000003
mp-672273,AlBiCl6,3.7506000000000004
mp-672976,LiSn(PO3)3,3.8626000000000005
mp-673023,LiBi(PO3)4,4.8168999999999995
mp-673069,Sb(PO3)4,0.0
mp-673702,Na2CeO3,1.9758999999999998
mp-674017,Nb17Ir3Se40,0.0
mp-674324,Sn7(SBr5)2,2.0140000000000002
mp-674506,NdPb7F17,4.419700000000001
mp-674972,Rb6Pb5Cl16,3.1411000000000002
mp-675093,Hf2N2O,2.0867999999999993
mp-675169,Bi14SO24,1.1040999999999999
mp-703515,CaCuSiH2O5,0.12199999999999989
mp-703589,K4Ti2H2O5F8,2.6382999999999996
mp-704197,Li2Mo(PO4)2,1.6945999999999999
mp-705599,Cr2P2O7,2.6129000000000002
mp-705680,La2Mo2O9,3.0656999999999996
mp-705746,Ti3Fe5O12,0.9830999999999999
mp-705857,MgV3O8,1.8772000000000002
mp-706277,Li10Si(PSe6)2,1.3276999999999999
mp-706281,NaH4CNO2,5.825200000000001
mp-706285,Na2H4PtC4Br2(N2O)2,1.7953000000000001
mp-706386,ZrH6O3F4,5.383
mp-706444,Zn3P2(H2O3)4,3.7117999999999998
mp-707096,K2P3H7O9,6.462
mp-707276,TeH9SN2O5F3,4.2669999999999995
mp-707323,LaH16C2N11O17,3.5553999999999997
mp-707334,K7P6H2NO22,3.6047000000000002
mp-707391,Na3AsH24SeO15,3.2866999999999997
mp-707396,Na3As3(HO5)2,2.8693999999999997
mp-707571,Na3SiH11O9,4.1941999999999995
mp-707821,Ru3C10I2O9,1.9618000000000002
mp-707977,AlPO4,5.5405999999999995
mp-709021,CaTi2(HO3)2,3.0705999999999998
mp-754999,SrLaCl5,3.4172000000000002
mp-755393,SrLaI5,2.0460999999999996
mp-755495,Li5Cu3(TeO5)2,0.25479999999999947
mp-755592,K2TbO3,0.0
mp-755681,Te2P4H3O16,0.0
mp-755707,K3LiTi7O16,2.8255999999999997
mp-755770,Ba2LaI7,1.8566000000000003
mp-755776,Rb4SiO4,2.5281000000000002
mp-755954,BaSr2I6,3.6180999999999996
mp-755977,CaPbI4,2.7904999999999998
mp-755980,SrCaI4,3.8183000000000002
mp-756745,BaLaI5,2.1330999999999998
mp-761755,LiCu(PO3)3,0.10249999999999981
mp-761807,Cr3Co3(SbO8)2,0.0
mp-761808,Na3(WO3)4,0.0
mp-761813,Mn6PbO12,0.0
mp-761814,LiCoPO4,2.5854999999999997
mp-761820,LiFeSi3O8,3.1603999999999997
mp-762525,Li2Fe3P5O18,1.9506999999999999
mp-762530,LiFePO4,3.4999000000000002
mp-762545,Li2FeSiO4,2.7796999999999996
mp-762563,NiP4H16(NO8)2,4.9437999999999995
mp-762572,Mn6O7F5,0.0
mp-762575,Li2(FeO2)3,0.0
mp-762595,Li2Fe3CoO8,0.0
mp-762609,Li2CrCo3O8,0.0
mp-762614,Li2TiMn3O8,0.9567000000000001
mp-762629,LiFeP2O7,1.9942000000000002
mp-762646,LiFeSiO4,2.1635999999999997
mp-762664,Li6V3P6WO24,1.5166999999999997
mp-762666,LiFe5P3O13,2.7297000000000002
mp-762674,LiFe4(PO4)3,3.1639999999999997
mp-762716,Li2Fe3(SiO4)2,2.2295999999999996
mp-762728,Li3Fe2(PO4)3,2.4231999999999996
mp-762846,Li3Fe2(PO4)3,2.2005999999999997
mp-762847,Na2CoP4(H4O5)4,3.2701000000000002
mp-763180,FeOF,1.5808999999999997
mp-763230,Li9Cr4(BO3)8,0.47820000000000007
mp-765486,PrAl22O34,0.0
mp-765505,Li4Fe2O5,2.1431999999999998
mp-765511,Li6VO5F,2.2588999999999997
mp-765595,Sn(PO3)3,0.0
mp-765597,HS2IO8,2.7664999999999997
mp-765601,Li3V4O11F,1.9947999999999997
mp-765672,V6O5F19,1.9325999999999999
mp-765884,Zr15VO32,1.7356000000000003
mp-769010,Li6Bi5O14,0.0
mp-769040,Li5BiO4,2.4425999999999997
mp-769047,Na4Bi2As(CO4)4,0.0
mp-769061,Bi4(BO4)3,0.0
mp-769096,MnP4,0.0
mp-769108,NiP4,0.0
mp-769122,Li4Sb2H6O3F10,4.648000000000001
mp-769147,Y2(SeO4)3,3.8169000000000004
mp-769159,LiCuPH2O5,0.0
mp-769171,SiGeO3,2.8185000000000002
mp-769569,Li6MgNi7O16,0.43530000000000024
mp-769585,Li4Mn3Co3(TeO8)2,0.0
mp-769606,LiZn4Fe13O24,1.4142000000000001
mp-769618,Ni4P2O9,2.2331999999999996
mp-769636,Li2Cu2(SO4)3,0.0
mp-772159,La6Cu6O17,0.0
mp-772212,LiNb5O8,0.09080000000000021
mp-772282,Sb4I2O5,1.9298000000000002
mp-772464,Li4Cr3Fe5O16,0.0
mp-772497,Er4(B2O5)3,5.580500000000001
mp-772533,FePO4F,0.0
mp-772535,LiNb13O33,1.707
mp-772564,NiH8(CO5)2,0.28290000000000015
mp-772582,Sr3W2O9,2.8234999999999997
mp-772587,Sr4Li4Nb5FeO20,1.2550000000000001
mp-772588,Li2V5B3O13,1.9400999999999997
mp-772627,Ho2(WO4)3,3.9244000000000003
mp-772628,Li3V(BO3)2,2.3124000000000002
mp-772710,Li2TiNb3O8,0.0
mp-772829,Ba6Li2Ti7(Sb3O14)3,0.0
mp-772852,Na3Zn4P4H4NO16,3.8467000000000002
mp-772862,BaSr2I6,3.4354999999999998
mp-772874,CaBi2O5,0.0
mp-772942,Cu3(P2O7)2,0.0
mp-773058,Ba6Ti7(Sb3O14)3,0.0
mp-773060,Ba6Ta9Ti7O42,0.0
mp-773061,Ba6Ti7Nb9O42,0.0
mp-776859,Li4Nb2Co3Sb3O16,0.0
mp-776863,Na5Mn2P(CO4)4,0.0
mp-776978,Li4Mn3V3(SbO8)2,0.35230000000000006
mp-777107,V9O22,0.9038999999999997
mp-777149,Li2MnVP2(HO5)2,0.49140000000000006
mp-777201,LiNiBO3,2.3794999999999997
mp-781704,Li4Ti2Mn3Cu3O16,0.0
mp-781754,Li3Mn2(P2O7)2,0.0
mp-781771,Co2O3F,0.0
mp-782001,Li8La4TiNb7O28,0.0
mp-782639,Dy2WO6,2.9143999999999997
mp-782641,Na4V2P(CO4)4,0.0
mp-782643,Li5Mn6(BO3)6,0.44179999999999997
mp-782644,LiMn3(BO3)3,0.41900000000000004
mp-792971,Li2MnVP2(O4F)2,0.0
mp-795582,Nb4ReO4,0.0
mp-849606,Cr4OF11,0.9244000000000001
mp-849669,Li2Mg2MnFe(PO4)4,0.9848000000000001
mp-849671,Li5Co2(SiO5)2,0.23460000000000014
mp-849672,Mn6OF11,0.43999999999999995
mp-849675,Li5Mn6(BO3)6,0.0
mp-849678,Li2Fe4OF8,2.2138999999999998
mp-850018,Li3Mn4(BO3)4,0.0
mp-850095,Mn12O5F19,0.0
mp-850143,Li3Fe4F19,0.0
mp-850239,Mn2V3O12,0.0
mp-850253,LiFe2(BO3)2,1.8867000000000003
mp-850256,LiFe2(BO3)2,1.5856000000000001
mp-850446,Li3Fe4(BO3)4,1.7144000000000001
mp-850455,LiFe4(BO3)4,1.2726999999999997
mp-624052,Fe2MoC10(SeO5)2,1.9792999999999998
mp-624762,Fe4Te2(CO)11,0.18179999999999996
mp-632219,ZrH,0.0
mp-632250,H2,7.3713
mp-632291,H2,8.8483
mp-632623,MnIn2W,0.0
mp-634965,NbO,0.0
mp-636240,MgCuSn,0.0
mp-636297,HfNiSn,0.0
mp-636331,V3Pt,0.0
mp-637378,Gd3InN,0.0
mp-637576,Mn4N,0.0
mp-639747,Ba,0.0
mp-675711,Li(Mo3S4)2,0.0
mp-675750,Ca(Ga3Te5)2,0.9728000000000003
mp-675768,Dy14Ti10O41,2.3411999999999997
mp-675781,Cu3(Mo3S4)4,0.0
mp-676252,Li9(RuO3)10,0.0
mp-676317,Rb2ZnCl3,3.1933999999999996
mp-676473,Te6H6S(Cl13O2)2,2.7203999999999997
mp-676591,Li11Nb12O36,0.0
mp-676644,Yb(Ga3Te5)2,0.9627000000000003
mp-676767,Ba4Yb3F17,0.0
mp-676865,BaGeO3,1.4290000000000003
mp-676881,Ho4Zr3O12,4.150399999999999
mp-677067,Ca3Al4Si8(ClO12)2,3.6088000000000005
mp-677177,RbAl6H20N5F24,3.1874000000000002
mp-677482,LaAl2Si5N9O,2.0951999999999993
mp-677649,SrLa9MgGa9O29,2.0728999999999997
mp-677680,LiMgAl3(SO4)6,5.7139999999999995
mp-677725,SrLa11Mg3Ga9O34,1.4889999999999999
mp-679971,TiSi4(NCl7)2,2.5220000000000002
mp-680189,Y21B7(C7I9)2,0.0
mp-680539,K11(In2Bi3)3,0.03130000000000033
mp-683955,KTaPS6,1.7348999999999999
mp-683975,K6Yb3(PS4)5,0.0
mp-684747,Bi2O3,1.6863000000000001
mp-685272,InSnBr3,1.8470999999999997
mp-686466,Pr16Si16N27Cl3O14,2.2197999999999998
mp-695157,KBaIn2(PO4)3,3.4534999999999996
mp-720082,KCd6H4C12ClO26,2.8156999999999996
mp-720245,CsKNaLi13(SiO4)4,3.9246000000000003
mp-720300,H4CSN2Cl,3.6188000000000002
mp-720494,K4TeP4(HO2)10,3.584
mp-720529,KH28S4N7O16,0.00759999999999994
mp-720571,CaH8(ClO2)2,5.1834999999999996
mp-720658,Cs3Mg3In(PO3)12,4.665699999999999
mp-720825,NaPH4O5,4.9948999999999995
mp-720868,Ca2CdH24(ClO2)6,4.241899999999999
mp-721238,Li10Sn(PO6)2,3.2725999999999997
mp-721300,Ca2B5H2ClO10,5.0988999999999995
mp-721552,Rb2TeH6SO10,0.03490000000000004
mp-721753,CsH7(C2O5)2,3.2358000000000002
mp-722867,Ca3Cu5Si9O26,0.0
mp-722900,CaH3NO5,3.4120999999999997
mp-758026,Li4Si4Bi2O13,2.3108999999999997
mp-758223,Bi11PO20,0.0
mp-758310,Li3Ti2(PO4)3,0.0
mp-758332,CaGd4O7,2.8514999999999997
mp-758362,Li3Ti2(PO4)3,0.00140000000000029
mp-758496,LiTi(PO3)4,0.0
mp-758504,K2Mg3P4(H5O6)4,4.986
mp-758599,Sr5(ReO3)12,0.0
mp-758800,B84O11,2.816
mp-758863,Sn2N2O,0.0
mp-759303,CsB10H13C,4.8431999999999995
mp-759346,LiCuPO4,0.0
mp-759377,LiTi2(PO4)3,2.5652999999999997
mp-759424,Li7Bi2P7O24,4.462400000000001
mp-760381,CuS,0.0
mp-763413,Li2U(WO5)2,1.5676999999999999
mp-763445,Li2V3P9O28,1.9376000000000002
mp-763458,V2GaO5,0.44020000000000037
mp-763460,LiP4WO12,3.5984999999999996
mp-763525,K8Li13(FeO4)4,1.7423999999999997
mp-763543,LiP3W2O13,3.4520999999999997
mp-763590,K4Li3(FeO4)2,0.14089999999999997
mp-763617,V4(AgO4)3,0.0
mp-766090,Hf3Sc4O12,4.190799999999999
mp-766110,LiMnV(P2O7)2,1.2710000000000001
mp-766237,Gd3Y13O24,3.4494999999999996
mp-766250,Er2H16S3O20,5.412100000000001
mp-766258,Y13Tm3O24,3.9909999999999997
mp-766310,BaCa2I6,3.6691000000000003
mp-766317,Ba2CaI6,3.8265000000000002
mp-766417,Ba10Cu5O17,0.0
mp-766597,Li4Ti5S12,1.0319000000000003
mp-766747,Li6Ni9(PO4)8,2.5553999999999997
mp-770054,Li2FePCO7,2.1050999999999997
mp-770061,Li2FePCO7,2.2695999999999996
mp-770077,LiFePCO7,0.0
mp-770083,Rb5FeO4,1.434
mp-770136,Li4MnV(PO4)3,1.8183999999999998
mp-770157,Li5Mn2P2(CO7)2,0.12290000000000001
mp-770163,Cr2(SO4)3,2.5768999999999997
mp-770165,Li2FePCO7,2.4417999999999997
mp-770168,Li5Mn2(PO4)3,3.8729000000000005
mp-770169,Li2MnV(PO4)3,0.9019000000000001
mp-770207,Li3Fe2P2(CO7)2,0.013800000000000007
mp-770225,LiMnPCO7,0.9722000000000001
mp-770263,Li3Mn2P2(CO7)2,0.0
mp-770295,Rb17Fe5O16,1.8477999999999999
mp-770298,Li3Mn2P2(CO7)2,0.28559999999999997
mp-773351,NaLi5Mn2P2(CO7)2,3.5517999999999996
mp-773358,Li2Fe2(PO4)3,0.0
mp-773374,Mn7V(PO4)12,0.0
mp-773389,CrP4O11,2.5725000000000002
mp-773414,Na5LiFe2P2(CO7)2,3.6191000000000004
mp-773498,Na6Sn2O7,1.9928999999999997
mp-773577,Li8Fe2O9,0.0
mp-773608,Li2Mn3(SeO3)4,2.7672999999999996
mp-773629,Li4Ni2(PO4)3,0.0
mp-773682,Na5LiMn2P2(CO7)2,3.3739999999999997
mp-773687,NaLi5Mn2P2(CO7)2,3.5368999999999997
mp-773701,Na5LiMn2P2(CO7)2,3.369
mp-773718,Li4Fe2(PO4)3,1.5435999999999999
mp-775022,LiFeOF,0.0
mp-777596,Li5V6O5F19,0.803
mp-777730,Li3BiB8O15,4.0047999999999995
mp-778629,LiV4OF11,0.9877000000000001
mp-778734,Li6Fe3Sn(PO4)6,1.6764000000000001
mp-778754,Li8MnFe7(BO3)8,3.1743000000000006
mp-850500,Mn11Fe(PO4)12,0.43879999999999986
mp-850529,SrCaI4,3.3834999999999997
mp-850744,Fe3(SiO4)2,1.4124999999999999
mp-850943,Li6TiNi3(PO4)6,0.0
mp-850981,V6O5F19,1.9572000000000003
mp-851020,Mn12O5F19,0.0
mp-851051,MnPO4,0.0
mp-851278,Li3Cr2(PO4)3,2.7986999999999997
mp-853180,ZnFe2(PO4)3,0.0
mp-853209,Li3Mn4(BO3)4,0.0
mp-853214,Li3Mn4(BO3)4,0.0
mp-853220,Ni3(P2O7)2,0.0
mp-853221,Li2Cr2(PO4)3,0.0
mp-853228,LiMn2(BO3)2,0.0
mp-864241,AcFeO3,0.9887999999999995
mp-865181,EuGeO3,0.0
mp-865218,YbTiO3,1.8956999999999997
mp-865758,YbGeO3,1.0216000000000003
mp-866030,EuSiO3,0.0
mp-866647,AcCrO3,1.7683999999999997
mp-971803,ZnHg3,0.0
mp-971804,ZnNi3,0.0
mp-971820,ZnH,0.0
mp-971853,Zn3B,0.0
mp-971857,Zn3C,0.0
mp-971875,UGa,0.0
mp-971933,YZr,0.0
mp-971951,Zr3Pt,0.0
mp-971957,Tm3Pb,0.0
mp-971958,Tm3P,0.0
mp-971975,SrHgO3,0.0
mp-971996,SrHoO3,0.0
mp-972021,SrInO3,0.0
mp-972036,WN,0.0
mp-972044,YbTh3,0.0
mp-972058,YbTmO3,0.0
mp-972066,ZrAlO3,0.0
mp-972087,ZrH3,0.0
mp-972103,U3C,0.0
mp-972116,VIrO3,0.0
mp-972156,TbY3,0.0
mp-972160,YbMgO3,0.0
mp-972184,VPtO3,0.0
mp-972185,Tl3Hg,0.0
mp-972222,TaBeO3,0.0
mp-973655,LuSiO3,0.0
mp-973674,HgN,0.0
mp-973681,LuRhO3,0.0
mp-973732,LiHo3,0.0
mp-973738,GeBO3,0.0
mp-973740,MgAs,0.0
mp-973777,Hg3F,0.0
mp-973783,H2,8.7958
mp-973796,PmHo,0.0
mp-973830,KErO3,0.0
mp-973834,PdAu3,0.0
mp-973865,PaAl3,0.0
mp-973869,LaCdO3,0.0
mp-973875,Ga3Ge,0.0
mp-973877,PaBO3,0.0
mp-973884,Ni3Hg,0.0
mp-973892,EuAlO3,0.0
mp-973908,PaFe3,0.0
mp-973919,NpOsO3,0.0
mp-973930,NpBeO3,0.0
mp-973933,NiN,0.0
mp-973935,OsN2,0.0
mp-973948,LiHf,0.0
mp-973958,KRuO3,0.0
mp-973963,NiH3,0.0
mp-973968,KNaO3,0.0
mp-973977,HoSnO3,0.0
mp-973994,NpPa3,0.0
mp-975657,PrH,0.0
mp-975664,NdGe3,0.0
mp-975802,PrSb3,0.0
mp-975887,PrNd3,0.0
mp-975913,PrNbO3,0.0
mp-975990,NaLiO3,0.0
mp-976010,Li3Cr,0.0
mp-976133,NaAsO3,0.0
mp-976138,PrDy3,0.0
mp-976147,PrEr3,0.0
mp-976185,NaBeO3,0.0
mp-976229,KAgO3,0.0
mp-1005753,Sm2AlGe6,0.0
mp-1006593,K3Hf2Se11,0.0
mp-1009005,IrN,0.0
mp-1013535,Sr3SbP,0.0
mp-1013953,LiCo2P2O9,0.047800000000000065
mp-1014111,Ni,0.0
mp-1014261,IrO2,0.0
mp-1014993,CrN2,0.0
mp-1018710,Hf2TaN3,0.0
mp-1019262,Ta2N3O,0.0
mp-1020590,Na8N3O,0.0
mp-1024993,DyB2Ir3,0.0
mp-1058798,LiBe,0.0
mp-10731,Ba2PrSbO6,3.684
mp-1078814,Ce2C2Cl,0.0
mp-1078912,Sr2HfFeO6,0.0
mp-10886,Al3Cu2,0.0
mp-10901,Al3Pd2,0.0
mp-1094454,YMg2,0.0
mp-1094664,MgAl,0.0
mp-1094788,MgZn,0.0
mp-1094849,MgGa,0.0
mp-1095618,PtN2,1.5735999999999999
mp-1096797,HgB6,0.0
mp-1099315,RbMg6Ti,0.0
mp-1100154,RbMg6Ga,0.0
mp-11262,YbAu4,0.0
mp-11267,BaHg2,0.0
mp-11278,Ta2Be,0.0
mp-1135,NbPd3,0.0
mp-12084,Lu(CrSi)2,0.0
mp-12085,Np(CrSi)2,0.0
mp-13156,HfAg,0.0
mp-13212,GdCuGe,0.0
mp-13941,Sr2YbReO6,0.0
mp-14107,NpF3,0.0
mp-1566,SmFe5,0.0
mp-16762,PrB3,0.0
mp-17025,Sr3Y(BO3)3,4.4201999999999995
mp-17118,Y3Ge5,0.0
mp-18845,Ba2FeWO6,0.0
mp-19071,Co2SiO4,0.0
mp-1973,NbGa3,0.0
mp-20924,U(FeSi)2,0.0
mp-21243,TlHg(NO2)3,0.0
mp-21288,La2InGe2,0.0
mp-21423,Pu2O3,0.0
mp-23438,BaBiO3,0.0
mp-23643,Cd5P3ClO12,2.1605999999999996
mp-24858,Ba2UCoO6,0.0
mp-2740,ErCo5,0.0
mp-27721,AsH3,0.0
mp-30765,LiPt7,0.0
mp-4692,Dy(SiNi)2,0.0
mp-4752,Na5Al3F14,6.548500000000001
mp-540007,MnPO4,0.46009999999999995
mp-541623,Ti4Fe2O,0.0
mp-542433,Fe3O4,0.22619999999999996
mp-5488,LiInO2,1.8142999999999998
mp-5517,Tb(NiP)2,0.0
mp-555491,ZrCoF6,0.0
mp-559390,CaAl2O4,4.190300000000001
mp-560131,SiO2,5.685499999999999
mp-561310,NaLiCO3,4.313400000000001
mp-568842,U3(Al3Ru)4,0.0
mp-581655,Pr13Cd58,0.0
mp-622048,Cs3Mo6(P5O19)2,0.0
mp-625103,YbHO2,0.0
mp-628817,P2W9O31,0.0
mp-643430,Al2S3,0.0
mp-645095,UAg3(AsO4)3,1.1261999999999999
mp-645449,Te3Au2,0.0
mp-645592,Nb3(BiO3)5,1.2671999999999999
mp-645655,TeMo3Se7I6,1.0756999999999999
mp-645701,Er17(TeRu2)3,0.0
mp-645719,Ca4In3Au10,0.0
mp-648788,Te7OsO5F32,0.10459999999999992
mp-649186,Os10C23S2O23,1.1320999999999999
mp-649605,W25O73,0.0
mp-673683,Sn16P15,0.0
mp-673703,Rb3Bi7Pb3(IO)10,0.24940000000000007
mp-675564,La2Th8O19,2.9637000000000002
mp-675760,Sm3(Sb7Te12)2,0.0
mp-675792,Ga2HgTe4,0.22270000000000012
mp-675858,Lu2FeS4,0.0
mp-675980,Cr(PS3)3,0.0
mp-676269,Yb2FeS4,0.0
mp-676291,Ta6Te3S,0.0
mp-676330,Nb12Br17F13,0.11929999999999996
mp-676545,Cd(Bi9O14)2,0.37700000000000067
mp-676580,Ba11(Nb3S14)2,0.46530000000000005
mp-676637,Na2UI6,0.0
mp-676683,Li2FeCl4,0.0
mp-676750,Yb2FeS4,0.0
mp-676840,Ag13(PbO3)6,0.0
mp-676909,NaEu2Cl6,0.0
mp-677016,Ca18Eu2P12(SO16)3,0.0
mp-677030,Ba9La9Cu9Ru9O46,0.0
mp-677054,AgSbO3,0.0
mp-677056,Na2UI6,0.0
mp-677069,Tl3(V3S4)8,0.0
mp-677336,Na10Zr6Si7(PO18)2,3.9808000000000003
mp-677337,H12C4S3(N3Cl2)2,0.09450000000000003
mp-677396,Sr2IrO4,0.0
mp-677529,Sr2La18AlSi11O52,0.0
mp-677705,Ba24In19N11,0.0
mp-678358,Hf5ZrTe8,0.0
mp-680086,Bi34Ir3Br37,0.0
mp-680143,Ge3Pb11O17,2.1412999999999998
mp-680237,K10Th3(P5S18)2,2.4436999999999998
mp-680260,Ti45Se16,0.0
mp-680269,Er2Fe3Si5,0.0
mp-680291,Ba15Fe7S25,0.020999999999999908
mp-680294,Tl2Cl3,1.7744999999999997
mp-680329,K3As7,1.4029000000000003
mp-680413,Rb3As7,1.4569999999999999
mp-680443,K4Pb9,0.28259999999999996
mp-680480,K6CdPb8,0.48360000000000003
mp-680614,LiYb8Ge13,0.0
mp-680697,Ce6Si4S17,0.0
mp-683937,Ni13Sn8P3,0.0
mp-686372,Na17Pd15F48,0.0
mp-686377,Lu2FeS4,0.0
mp-686382,Sr2La14Mg2Ga14O45,0.0
mp-686417,Zr25Sc6O59,3.5812999999999997
mp-686458,Rb11Al14Si10(AgO16)3,0.020100000000000007
mp-686587,Yb9(Fe3S10)2,0.0
mp-686590,Sr16Cu8BC7O40,0.0
mp-686635,Rb16Er7Ti9(PO4)24,2.5888999999999998
mp-686651,Ca9LaTi10O30,0.0
mp-686673,Ba(Hf2As3)6,0.0
mp-686681,Ca6Ga6Si3(HO12)2,0.39979999999999993
mp-6953,Ca(MnP)2,0.0
mp-6986,Ta,0.0
mp-705113,LiMo4P7O24,3.4072999999999998
mp-705373,Li6Co3P8O29,0.0
mp-705375,LiNi4P7O24,0.0
mp-705409,Cr3(PO4)4,0.0
mp-705431,Li6Fe5(P2O7)4,0.0
mp-705433,Fe5(P2O7)4,0.0
mp-705436,Ni5(P2O7)4,0.0
mp-705525,Yb6H20N8O49,0.0
mp-705613,Bi14MoO24,0.0
mp-705671,La19Mn19O60,0.0
mp-705750,La2(WO3)19,0.0
mp-705775,La5Mn5O16,0.010000000000000675
mp-705780,Mg11(Fe15O28)2,1.1207000000000003
mp-705784,KW5O13,0.0
mp-705870,La17Mn17O54,0.0
mp-705871,Ca7Al3Si10N21,0.0
mp-705898,Ca2VFe4BiO12,1.1137000000000001
mp-706246,Ca9LaTi6Mn4O30,0.0
mp-706340,Ca9LaMn10O30,0.0
mp-706599,Sr6Te6O17,1.7835999999999999
mp-706605,K4ZrH10C8O21,0.9381999999999999
mp-706661,UTi22Fe18PbO76,0.14290000000000003
mp-706836,Mn27Nb13O60,0.0
mp-706872,Na2TbO3,0.0
mp-707264,NaCa3UH16C3SO25F,0.48250000000000004
mp-707478,H6Os5Pt(CO)16,1.8719000000000001
mp-707931,H3Os4C12ClO12,2.5768999999999997
mp-7099,NdB2Ru3,0.0
mp-754549,Na2CuO2,0.0
mp-755264,TiO,0.0
mp-755300,TiO,0.0
mp-755755,Li3Nb(CuO2)4,0.0
mp-758002,Li3Sn(PO4)2,0.24860000000000015