task_id,composition,band_gap
mp-540528,Cr2P3O13,0.0
mp-1095837,Cr2ReMo,0.0
mp-1095835,Cr2ReW,0.0
mp-1226355,Cr2Rh2C,0.0
mp-1226340,Cr2SbAs,0.0
mp-2832,Cr2Se3,0.0
mp-1226267,Cr2SeS,0.0
mp-1078494,Cr2SiC,0.0
mp-775273,Cr2Te(PO4)3,0.0
mp-2750,Cr2Te3,0.0
mp-1226320,Cr2TeSe,0.0
mp-771791,Cr3(FeO4)2,0.0
mp-1226369,Cr3(MoC2)2,0.0
mp-1204126,Cr3(NO5)2,0.0
mp-1226346,Cr3(TeSe)2,0.0
mp-1193149,Cr3(W10C3)2,0.0
mp-1213747,Cr3As,0.0
mp-1079324,Cr3AsC,0.0
mp-22209,Cr3AsN,0.0
mp-1204235,Cr3AsN2O13,0.0
mp-1226568,Cr3B12Rh25,0.0
mp-889,Cr3B4,0.0
mp-1226327,Cr3B4Mo3,0.0
mp-1189286,Cr3C,0.0
mp-20937,Cr3C2,0.0
mp-984629,Cr3CdTe4,0.0
mp-1025503,Cr3Co,0.0
mp-761636,Cr3Co(PO4)6,0.0
mp-1226444,Cr3Co2,0.0
mp-761807,Cr3Co3(SbO8)2,0.0
mp-761712,Cr3Co3(TeO8)2,0.0
mp-1178426,Cr3CoTe2(PO4)6,0.0
mp-984711,Cr3Cu,0.0
mp-773405,Cr3Cu(PO4)4,0.0
mp-1226324,Cr3Cu2NiSe8,0.0
mp-1226326,Cr3Cu2SbS8,0.0
mp-1008282,Cr3Fe,0.0
mp-775201,Cr3Fe(PO4)6,0.0
mp-1182655,Cr3Fe2O15,0.0
mp-1226425,Cr3Fe3GeAs2,0.0
mp-1226329,Cr3Fe3SiAs2,0.0
mp-1231,Cr3Ga,0.0
mp-18654,Cr3Ga4,0.0
mp-1226345,Cr3GaFe3As2,0.0
mp-3000,Cr3GaN,0.0
mp-1079702,Cr3GaP4,0.0
mp-1226433,Cr3GaS6,0.0
mp-20685,Cr3Ge,0.0
mp-29804,Cr3GeC,0.0
mp-637918,Cr3GeN,0.0
mp-602355,Cr3HO8,0.0
mp-1226318,Cr3In(CoS4)2,0.0
mp-1609,Cr3Ir,0.0
mp-505628,Cr3IrN,0.0
mp-1014345,Cr3N4,0.0
mp-1008278,Cr3Ni,0.0
mp-774406,Cr3Ni(PO4)6,0.0
mp-776858,Cr3Ni(SO4)6,0.0
mp-1226349,Cr3NiB6,0.0
mp-1226323,Cr3NiP4,0.0
mp-1226332,Cr3NiSb4,0.0
mp-1226408,Cr3NiSn8,0.0
mp-765190,Cr3NiTe2(PO4)6,0.0
mp-714896,Cr3O,0.0
mp-416,Cr3Os,0.0
mp-1047904,Cr3P3O13,0.0
mp-763487,Cr3P4O15,0.0
mp-1078492,Cr3PC,0.0
mp-1080816,Cr3PN,0.0
mp-10373,Cr3PdN,0.0
mp-446,Cr3Pt,0.0
mp-10374,Cr3PtN,0.0
mp-958,Cr3Rh,0.0
mp-1226375,Cr3Rh3S8,0.0
mp-21244,Cr3RhN,0.0
mp-1272,Cr3Ru,0.0
mp-1226231,Cr3Ru3C2,0.0
mp-849071,Cr3S4,0.0
mp-1226373,Cr3SbAs2,0.0
mp-984712,Cr3Se,0.0
mp-729,Cr3Si,0.0
mp-505629,Cr3SiNi2,0.0
mp-10376,Cr3SnN,0.0
mp-1078012,Cr3Te4,0.0
mp-1226350,Cr3Te5,0.0
mp-1043136,Cr4(CuO4)3,0.0
mp-676814,Cr4(Ga2Se5)3,0.0
mp-31658,Cr4(PO4)3,0.0
mp-1226292,Cr4(SeS)3,0.0
mp-1227102,Cr46(BC3)3,0.0
mp-1226275,Cr4B,0.0
mp-1226280,Cr4CdAgSe8,0.0
mp-1226224,Cr4CdCuO8,0.0
mp-1226325,Cr4CdFeS8,0.0
mp-1226265,Cr4CoCuS8,0.0
mp-1226342,Cr4CoNiS8,0.0
mp-674310,Cr4Cu3Se8,0.0
mp-1226405,Cr4CuNiSe8,0.0
mp-763917,Cr4CuO12,0.0
mp-1196629,Cr4Fe2O19,0.0
mp-1226300,Cr4FeCoS8,0.0
mp-1226331,Cr4FeCu(SeS)4,0.0
mp-6685,Cr4FeCuS8,0.0
mp-1226315,Cr4FeCuSe8,0.0
mp-1226289,Cr4FeNiS8,0.0
mp-1226247,Cr4GaCuS8,0.0
mp-1226304,Cr4GaCuSe8,0.0
mp-1226264,Cr4GaS8,0.0
mp-1226645,Cr4In2(CuSe4)3,0.0
mp-1226293,Cr4InAgS8,0.0
mp-1226322,Cr4InAgSe8,0.0
mp-1226282,Cr4InCuS8,0.0
mp-20809,Cr4InCuSe8,0.0
mp-1226243,Cr4Ni,0.0
mp-585323,Cr4P7O24,0.0
mp-504406,Cr4P9O32,0.0
mp-1191548,Cr4PN3O16,0.0
mp-1226328,Cr4Te3S,0.0
mp-1226252,Cr4Te3Se,0.0
mp-1192637,Cr5(Bi3Se8)2,0.0
mp-1226038,Cr5(Te3Se)2,0.0
mp-676751,Cr5AgS8,0.0
mp-505539,Cr5As3,0.0
mp-15617,Cr5B3,0.0
mp-1213888,Cr5Cu2(PO4)6,0.0
mp-568324,Cr5Ge3,0.0
mp-1104974,Cr5InSe8,0.0
mp-1226031,Cr5NiAs3,0.0
mp-1226452,Cr5NiS8,0.0
mp-1226062,Cr5NiSn12,0.0
mp-1311,Cr5S6,0.0
mp-849084,Cr5S8,0.0
mp-1104327,Cr5Se8,0.0
mp-7506,Cr5Si3,0.0
mp-1226086,Cr5Te6,0.0
mp-1213754,Cr5Te8,0.0
mp-1226023,Cr6BC3,0.0
mp-1226051,Cr6C3N,0.0
mp-1226266,Cr6Cd(CuO6)2,0.0
mp-1226097,Cr6Co2CuSe12,0.0
mp-1213798,Cr6O11,0.0
mp-694897,Cr6PbO18,0.0
mp-541940,Cr6Si7Ni16,0.0
mp-1226071,Cr7Cd3(InS8)2,0.0
mp-768498,Cr7Ni20Mo3,0.0
mp-1226358,Cr7Se10,0.0
mp-696673,Cr7Se8,0.0
mp-1213756,Cr7Te8,0.0
mp-1226128,Cr8Cd3CuS16,0.0
mp-1226633,Cr8Co3NiS16,0.0
mp-1226059,Cr8CoCu3Se16,0.0
mp-1226091,Cr8Cu3NiS16,0.0
mp-1226149,Cr8Fe2CuNiS16,0.0
mp-1226582,Cr8Fe3CuS16,0.0
mp-1226423,Cr8Fe3NiS16,0.0
mp-1226359,Cr8FeCo2CuS16,0.0
mp-1226330,Cr8Ga3CuSe16,0.0
mp-767372,Cr8Ni50Mo15W2,0.0
mp-766895,Cr8Ni50Mo17,0.0
mp-1226337,Cr9FeB6,0.0
mp-676500,Cr9In7S24,0.0
mp-1183721,CrAg3,0.0
mp-777097,CrAgO4,0.0
mp-1226317,CrAgSn(SeS)2,0.0
mp-1226291,CrAgSnS4,0.0
mp-1226303,CrAgSnSe4,0.0
mp-1018084,CrAgTe2,0.0
mp-15681,CrAs2,0.0
mp-1042757,CrAs2O7,0.0
mp-15683,CrAsRh,0.0
mp-1226221,CrAu,0.0
mp-1070789,CrAu4,0.0
mp-1080664,CrB,0.0
mp-374,CrB2,0.0
mp-1226228,CrB2Mo,0.0
mp-1226273,CrB2Ru,0.0
mp-1226242,CrB2W,0.0
mp-1078278,CrB4,0.0
mp-1226219,CrB4Mo,0.0
mp-1079128,CrBi,0.0
mp-775434,CrBiO4,0.0
mp-1226374,CrBiWO6,0.0
mp-567624,CrBr2,0.0
mp-27734,CrBr3,1.267
mp-1018050,CrC,0.0
mp-1204712,CrC6N12(ClO3)3,0.0
mp-1079533,CrCd3Te4,0.0
mp-1181713,CrCdCu3Se4,0.0
mp-1018083,CrCdTe2,0.0
mp-1183702,CrCl,0.0
mp-1010071,CrCo,0.0
mp-1008277,CrCo2As,0.0
mp-1183740,CrCo2Ge,0.0
mp-1018082,CrCo2Sb,0.0
mp-1008224,CrCo2Si,0.0
mp-1087479,CrCo3,0.0
mp-1206397,CrCoAs,0.0
mp-1226217,CrCoB,0.0
mp-1206044,CrCoBr3,0.0
mp-1095673,CrCoSi,0.0
mp-1226249,CrCoSi2,0.0
mp-1009593,CrCoTe,0.0
mp-868653,CrCu(PO4)2,0.0
mp-1007924,CrCu2Si,0.0
mp-772002,CrCu3(PO4)4,0.0
mp-1181716,CrCu3HgSe4,0.0
mp-1226279,CrCu4NiSn2,0.0
mp-1100441,CrCuB,0.0
mp-1006615,CrCuN6Cl5,0.0
mp-1183696,CrCuO3,0.0
mp-1226276,CrCuRhSe4,0.0
mp-1226309,CrCuS4,0.0
mp-1226299,CrCuSnS4,0.0
mp-1226334,CrCuSnSe4,0.0
mp-1226211,CrFe,0.0
mp-1226343,CrFe11Si4,0.0
mp-1018068,CrFe2Si,0.0
mp-1008226,CrFe2Sn,0.0
mp-1018081,CrFe3,0.0
mp-1226210,CrFe3As2,0.0
mp-1226213,CrFe3B2,0.0
mp-762179,CrFe3Co2(PO4)6,0.0
mp-773538,CrFe3Cu2(PO4)6,0.0
mp-1206130,CrFe3N,0.0
mp-850902,CrFe3Ni2(PO4)6,0.0
mp-1226271,CrFe3Sb4,0.0
mp-1226230,CrFe4,0.0
mp-1206083,CrFeAs,0.0
mp-1226258,CrFeAs2,0.0
mp-1226236,CrFeAs4,0.0
mp-1226310,CrFeB2,0.0
mp-1012640,CrFeCoNi,0.0
mp-1213726,CrFeCoSi,0.0
mp-1226385,CrFeGe2,0.0
mp-1226245,CrFeP2,0.0
mp-1226496,CrFeRhS4,0.0
mp-1226240,CrFeS2,0.0
mp-1226336,CrFeS4,0.0
mp-1226216,CrFeSb4,0.0
mp-1226256,CrFeSi2,0.0
mp-1009592,CrFeTe,0.0
mp-1182452,CrGa,0.0
mp-1226347,CrGa3(CoSe4)2,0.0
mp-1226260,CrGa3(FeSe4)2,0.0
mp-985440,CrGa3P4,0.0
mp-1070544,CrGa4,0.0
mp-1106199,CrGa7P8,0.0
mp-567981,CrGaCo2,0.0
mp-30570,CrGaFe2,0.0
mp-1226233,CrGaFeSe4,0.0
mp-1097300,CrGaIr2,0.0
mp-770485,CrGaO4,0.0
mp-1018079,CrGaP2,0.0
mp-1183690,CrGaRh2,0.0
mp-1183688,CrGaRu2,0.0
mp-8829,CrGaSe3,0.0
mp-1093813,CrGaTc2,0.0
mp-631421,CrGaTe,0.0
mp-20861,CrGe,0.0
mp-1183712,CrGeO3,0.0
mp-961725,CrGeRh,0.0
mp-1206594,CrGeRu2,0.0
mp-541449,CrGeTe3,0.0
mp-24287,CrH,0.0
mp-1213766,CrH12(CF)8,0.0
mp-24208,CrH2,0.0
mp-1183679,CrH3,0.0
mp-1106046,CrH4C4NO10,0.0
mp-1183693,CrHg3,0.0
mp-1183750,CrIn3,0.0
mp-16735,CrInCo2,0.0
mp-1226298,CrInCoS4,0.0
mp-1007961,CrInCu2,0.0
mp-1007991,CrInNi2,0.0
mp-1226434,CrInNiS4,0.0
mp-1226229,CrIr,0.0
mp-12083,CrIr3,0.0
mp-631404,CrIrRu,0.0
mp-1226254,CrMoAs2,0.0
mp-1095987,CrMoW2,0.0
mp-1183691,CrN,0.0
mp-1080200,CrN2,0.0
mp-1194673,CrN3O8,0.0
mp-1226232,CrNi,0.0
mp-775333,CrNi(PO4)2,0.0
mp-784631,CrNi2,0.0
mp-631502,CrNi2Hg,0.0
mp-774119,CrNi3(PO4)4,0.0
mp-1226284,CrNi3Sb4,0.0
mp-772386,CrNi5(PO4)6,0.0
mp-18726,CrNiO4,1.924
mp-1079966,CrNiP,0.0
mp-1044071,CrNiP2O9,0.0
mp-1018161,CrNiSb,0.0
mp-1226212,CrNiSb2,0.0
mp-780820,CrO,0.0
mp-21048,CrP,0.0
mp-7291,CrP2,0.0
mp-768680,CrP2S7,0.0
mp-1226189,CrP2W,0.0
mp-7302,CrP4,0.0
mp-775489,CrP6(WO8)3,2.067
mp-1226193,CrP8W3,0.0
mp-770697,CrPO4F,0.0
mp-1087537,CrPPd,0.0
mp-1101069,CrPSe3,0.0
mp-1072023,CrPb2,0.0
mp-24913,CrPbO3,0.0
mp-1226166,CrPd,0.0
mp-865786,CrPd3,0.0
mp-1203543,CrPdBr4N5Cl,0.0
mp-1063607,CrPdO2,0.0
mp-1206750,CrPt,0.0
mp-2515,CrPt3,0.0
mp-1226207,CrPt4,0.0
mp-1214330,CrPtBr4N5Cl,0.0
mp-772245,CrPtO2,0.0
mp-1226393,CrRe13B6,0.0
mp-1183703,CrRe3,0.0
mp-1226262,CrRe3B4,0.0
mp-1226226,CrRe5B2,0.0
mp-31628,CrReO4,0.0
mp-1093584,CrReW2,0.0
mp-1226170,CrRh,0.0
mp-12585,CrRh3,0.0
mp-1183719,CrRhO3,0.0
mp-1226177,CrRu,0.0
mp-523,CrS,0.0
mp-755263,CrS2,0.0
mp-1213738,CrS2NO8,0.0
mp-1190795,CrSO9,0.0
mp-1641,CrSb,0.0
mp-1102668,CrSbPt,0.0
mp-2189,CrSe,0.0
mp-1009581,CrSe2,0.0
mp-7576,CrSi,0.0
mp-1093862,CrSi2Tc,0.0
mp-39540,CrSiH12(OF)6,0.0
mp-1226241,CrSiMo,0.0
mp-1103085,CrSiNi,0.0
mp-1097121,CrSiOs2,0.0
mp-865791,CrSiRu2,0.0
mp-1096636,CrSiTc2,0.0
mp-1226253,CrSiW,0.0
mp-609,CrSn2,0.0
mp-1213732,CrSn4Au,0.0
mp-1018066,CrSnRh2,0.0
mp-1206591,CrSnRu2,0.0
mp-1093624,CrTc2Ge,0.0
mp-1093974,CrTcGe2,0.0
mp-1183695,CrTcO3,0.0
mp-1079818,CrTe,0.0
mp-12743,CrTe4Au,0.0
mp-15226,CrWN2,0.0
mp-1206348,Cs(AsIr)2,0.0
mp-569012,Cs(AsRh)2,0.0
mp-570837,Cs(AsRu)2,0.0
mp-24136,Cs(BH)6,5.3813999999999975
mp-1206830,Cs(CoAs)2,0.0
mp-557018,Cs(CoS)2,0.0
mp-571343,Cs(CoSe)2,0.0
mp-1238823,Cs(CrS2)2,0.0
mp-28884,Cs(FeAs)2,0.0
mp-1207125,Cs(FeP)2,0.0
mp-12119,Cs(FeSb)2,0.0
mp-1183843,Cs(Mg4Al3)4,0.0
mp-11181,Cs(MnP)2,0.0
mp-541213,Cs(MoO3)3,0.0
mp-561682,Cs(MoS)3,0.0
mp-1226696,Cs(MoS)9,0.0
mp-1229166,Cs(NpSe3)2,0.0
mp-559998,Cs(OsO3)2,0.0
mp-1207365,Cs(PIr)2,0.0
mp-1206405,Cs(PRh)2,0.0
mp-1207015,Cs(PRu)2,0.0
mp-1229164,Cs(ThSe3)2,0.0
mp-1229153,Cs(ThTe3)2,0.0
mp-568039,Cs(WCl3)3,0.0
mp-25175,Cs(WO3)2,0.0
mp-763713,Cs(WO3)3,0.0
mp-504805,Cs(Zr3I7)2,0.0
mp-685609,Cs10(Mo2N5)3,0.0
mp-1203755,Cs11Fe10S16O,0.0
mp-562001,Cs11O3,0.0
mp-572722,Cs11Rb7O3,0.0
mp-1228320,Cs19(W2N5)6,0.0
mp-1113575,Cs2AgAuBr6,0.0
mp-1113576,Cs2AgAuF6,0.0
mp-1206546,Cs2AgF6,0.0
mp-1226182,Cs2Al(TeO4)3,0.0
mp-1113424,Cs2AlAuBr6,0.0
mp-1112932,Cs2AlAuI6,0.0
mp-1112629,Cs2AlHgBr6,0.0
mp-1112616,Cs2AlHgCl6,0.0
mp-1113101,Cs2AlHgF6,0.0
mp-1112632,Cs2AsAuBr6,0.0
mp-1112929,Cs2AsAuI6,0.0
mp-1113421,Cs2BiAuI6,0.0
mp-623165,Cs2Ce10Os2I17,0.0
mp-1113538,Cs2CeAgF6,0.0
mp-1113362,Cs2CeCuI6,0.20600000000000002
mp-558911,Cs2Co3S4,0.0
mp-561830,Cs2CoS2,0.0
mp-8770,Cs2CoSe2,0.0
mp-557324,Cs2CrF6,0.0
mp-1226365,Cs2Cu3NiF10,0.0
mp-28467,Cs2Cu5Se4,0.0
mp-1113490,Cs2CuAuCl6,0.0
mp-1112959,Cs2CuAuF6,0.0
mp-1226412,Cs2CuBrCl3,0.0
mp-1025265,Cs2CuF4,0.0
mp-28692,Cs2CuF6,0.0
mp-19732,Cs2CuPb(NO2)6,0.0
mp-1113566,Cs2EuAgCl6,0.0
mp-1113420,Cs2EuAuCl6,0.0
mp-1113208,Cs2EuCuCl6,0.0
mp-1113594,Cs2GaAgI6,0.0
mp-1113416,Cs2GaAuBr6,0.0
mp-1113218,Cs2GaAuCl6,0.0
mp-1112925,Cs2GaAuI6,0.0
mp-1113185,Cs2GaCuCl6,0.0
mp-1113302,Cs2GaHgBr6,0.0
mp-1113202,Cs2GaHgCl6,0.0
mp-1112903,Cs2GaHgI6,0.0
mp-568335,Cs2Hg27,0.0
mp-1112911,Cs2HgAsBr6,0.0
mp-1112907,Cs2HgAsCl6,0.0
mp-1112603,Cs2HgAsF6,0.0
mp-1112908,Cs2HgAsI6,0.0
mp-1113305,Cs2HgAuBr6,0.0
mp-1112640,Cs2HgAuF6,0.0
mp-1112905,Cs2HgBiBr6,0.0
mp-1112906,Cs2HgBiCl6,0.0
mp-1113179,Cs2HgBiF6,0.0
mp-1113303,Cs2HgBiI6,0.0
mp-1112948,Cs2HgIrF6,0.0
mp-1112589,Cs2HgPdF6,0.0
mp-1113296,Cs2HgSbBr6,0.0
mp-1112902,Cs2HgSbCl6,0.0
mp-1112957,Cs2HgSbF6,0.0
mp-1113295,Cs2HgSbI6,0.0
mp-1113565,Cs2InAgI6,0.0
mp-1112894,Cs2InAsCl6,0.0
mp-1112924,Cs2InAuBr6,0.0
mp-1112620,Cs2InAuCl6,0.0
mp-1113414,Cs2InAuI6,0.0
mp-1113481,Cs2InCuBr6,0.0
mp-1112609,Cs2InCuCl6,0.0
mp-1113300,Cs2InHgBr6,0.0
mp-1112904,Cs2InHgCl6,0.0
mp-1112901,Cs2InHgI6,0.0
mp-1113283,Cs2InSbI6,0.0
mp-28651,Cs2IrCl6,0.0
mp-572797,Cs2IrF6,0.0
mp-1204303,Cs2K2Pd2N8O25,0.0
mp-1112788,Cs2KAuBr6,0.0
mp-558851,Cs2KCoF6,0.0
mp-579605,Cs2KEuCl6,0.0
mp-505660,Cs2KFe(CN)6,3.621
mp-628216,Cs2KMn(CN)6,0.0
mp-619127,Cs2KMn3F12,1.947
mp-557958,Cs2KNiF6,0.0
mp-989585,Cs2KPbF6,0.0
mp-1113037,Cs2KPdF6,0.0
mp-1111021,Cs2KPrF6,6.1534999999999975
mp-1183766,Cs2KRb,0.0
mp-1112583,Cs2KRuF6,0.0
mp-1113131,Cs2KScF6,6.818099999999999
mp-1229170,Cs2KSiF7,5.461399999999999
mp-1112695,Cs2KTaBr6,0.0
mp-1112693,Cs2KTaCl6,0.0
mp-1110984,Cs2KTaF6,0.0
mp-1113031,Cs2KTaI6,0.0
mp-6178,Cs2KTiF6,0.0
mp-862811,Cs2KU2(Si2O7)2,0.0
mp-6059,Cs2KYF6,6.464
mp-1206442,Cs2KYbCl6,0.0
mp-1213737,Cs2La10Os2I17,0.0
mp-1213716,Cs2LaNb2O7,0.0
mp-8711,Cs2Li14Tb3O14,0.0
mp-560088,Cs2Li3F5,5.618399999999999
mp-1113026,Cs2LiAuCl6,0.0
mp-1113199,Cs2LiEuCl6,0.0
mp-553988,Cs2LiF3,5.6590000000000025
mp-21013,Cs2LiFe(CN)6,0.0
mp-6854,Cs2LiMn(CN)6,0.0
mp-1112580,Cs2LiNbF6,0.0
mp-1112572,Cs2LiPdF6,0.0
mp-1111834,Cs2LiTaBr6,0.0
mp-1110988,Cs2LiTaCl6,0.0
mp-1113000,Cs2LiTaI6,0.0
mp-1110969,Cs2LiYF6,7.2662999999999975
mp-569387,Cs2Lu7CCl18,0.0
mp-1213730,Cs2MgZr(PO4)3,0.0
mp-1025252,Cs2MnCl4,1.7830000000000001
mp-640345,Cs2MnFe(CN)6,0.0
mp-1226311,Cs2MnNiF6,3.7430000000000003
mp-573947,Cs2MnSe2,1.2429999999999999
mp-1207229,Cs2MoBr6,0.0
mp-570990,Cs2MoCl6,0.0
mp-567575,Cs2Na(C2N3)3,4.392
mp-1110565,Cs2NaAuBr6,0.0
mp-1112994,Cs2NaAuCl6,0.0
mp-1112661,Cs2NaBiBr6,3.044
mp-989644,Cs2NaCaCl6,0.0
mp-989572,Cs2NaCaF6,0.0
mp-621730,Cs2NaCoF6,0.0
mp-1112989,Cs2NaEuCl6,0.0
mp-541977,Cs2NaFe(CN)6,0.0
mp-13898,Cs2NaInF6,5.3039999999999985
mp-989559,Cs2NaLiF6,0.0
mp-989568,Cs2NaMgF6,0.0
mp-554858,Cs2NaMnF6,0.0
mp-989556,Cs2NaPbF6,0.0
mp-1112013,Cs2NaRuF6,0.0
mp-6204,Cs2NaScF6,6.7990999999999975
mp-989574,Cs2NaSrF6,0.0
mp-1111728,Cs2NaTaBr6,0.0
mp-1111428,Cs2NaTaCl6,0.0
mp-1112399,Cs2NaTaI6,0.0
mp-687094,Cs2NaVF6,0.0
mp-13925,Cs2NaYF6,6.8653999999999975
mp-567172,Cs2NaYbCl6,0.0
mp-1112950,Cs2NbAgF6,0.0
mp-1113104,Cs2NbCuF6,0.0
mp-1111976,Cs2NbTlF6,0.0
mp-572986,Cs2Np2PO4F7,0.0
mp-1213719,Cs2O3,0.0
mp-1229109,Cs2OsBrClF4,0.0
mp-1213749,Cs2Pr10Co2I17,0.0
mp-1207345,Cs2PrF6,0.0
mp-7646,Cs2PrO3,0.0
mp-9262,Cs2PtF6,2.814
mp-1025208,Cs2PuO4,0.0
mp-1112524,Cs2RbAuBr6,0.0
mp-1112523,Cs2RbAuCl6,0.0
mp-1112129,Cs2RbBiCl6,3.976
mp-1112519,Cs2RbEuCl6,0.0
mp-989618,Cs2RbGaF6,5.939299999999999
mp-1112515,Cs2RbLuCl6,0.0
mp-1111966,Cs2RbNbF6,0.0
mp-989525,Cs2RbPbF6,0.0
mp-1205550,Cs2RbPdF6,0.0
mp-1112166,Cs2RbRuF6,0.0
mp-1112511,Cs2RbTaF6,0.0
mp-1205774,Cs2ReF6,1.8119999999999998
mp-1113110,Cs2RuAuF6,0.0
mp-989517,Cs2SBrCl6,0.0
mp-989521,Cs2SCl6F,0.0
mp-1113393,Cs2SbAuBr6,0.0
mp-1112922,Cs2SbAuI6,0.0
mp-28269,Cs2SbBr6,0.0
mp-1184201,Cs2SbCl6,0.0
mp-1112630,Cs2ScHgBr6,0.0
mp-1113294,Cs2ScHgCl6,0.0
mp-1112899,Cs2ScHgI6,0.0
mp-989544,Cs2SeClF6,0.0
mp-1182737,Cs2Si(S2O7)3,5.269699999999999
mp-4047,Cs2SiF6,6.8851999999999975
mp-1112334,Cs2TaAgBr6,0.0
mp-1113222,Cs2TaAgCl6,0.0
mp-1112935,Cs2TaAgI6,0.0
mp-569885,Cs2TaCl6,0.0
mp-1112910,Cs2TaCuBr6,0.0
mp-1113336,Cs2TaCuCl6,0.0
mp-1112879,Cs2TaCuI6,0.0
mp-1112610,Cs2TaHgF6,0.0
mp-36254,Cs2TaS6,0.0
mp-1112483,Cs2TaTlF6,0.0
mp-1213718,Cs2TbO3,0.0
mp-1183855,Cs2Tc2O5,0.0
mp-581150,Cs2Te10Mo9,0.0
mp-1113444,Cs2TlAgBr6,0.0
mp-1113442,Cs2TlAgCl6,0.0
mp-1112933,Cs2TlAgI6,0.0
mp-1112500,Cs2TlAuBr6,0.0
mp-1113536,Cs2TlAuCl6,0.0
mp-1112499,Cs2TlAuF6,0.0
mp-1113379,Cs2TlAuI6,0.0
mp-1113558,Cs2TlCuBr6,0.0
mp-1113205,Cs2TlCuCl6,0.0
mp-1112637,Cs2TlCuF6,0.0
mp-1112900,Cs2TlHgBr6,0.0
mp-1113292,Cs2TlHgCl6,0.0
mp-1113141,Cs2TlHgF6,0.0
mp-1113282,Cs2TlHgI6,0.0
mp-996945,Cs2TlInH6,0.0
mp-1112343,Cs2TlPdF6,0.0
mp-1112339,Cs2TlRuF6,0.0
mp-989560,Cs2TlSiH6,0.0
mp-557533,Cs2TlVF6,0.0
mp-1077991,Cs2TmCl4,0.0
mp-1025334,Cs2TmH4,0.0
mp-1192271,Cs2U(PdS2)3,0.0
mp-1191887,Cs2U(PdSe2)3,0.0
mp-1191335,Cs2U(PtS2)3,0.0
mp-1190813,Cs2U(PtSe2)3,0.0
mp-1183901,Cs2U2O5,0.0
mp-1196686,Cs2U6Pd4S17,0.0
mp-540735,Cs2UBr6,0.0
mp-561356,Cs2UP2O9,2.1519999999999997
mp-669339,Cs2UTa6(Cl5O)3,0.0
mp-1102713,Cs2VBr5O4,0.0
mp-1102108,Cs2VCl5O4,0.0
mp-1206014,Cs2VCl6,0.0
mp-541753,Cs2WBr6,0.0
mp-30234,Cs2WCl6,0.0
mp-1112897,Cs2YHgBr6,0.0
mp-1112898,Cs2YHgCl6,0.0
mp-1112607,Cs2YHgF6,0.0
mp-1112895,Cs2YHgI6,0.0
mp-1213746,Cs2YbCl5,0.0
mp-581877,Cs2Zr(Si2O5)3,4.946899999999999
mp-6694,Cs2Zr(SiO3)3,4.789899999999999
mp-1213813,Cs2ZrMn(PO4)3,0.0
mp-8759,Cs2ZrO3,3.854
mp-1228215,Cs3(Cr5Se8)4,0.0
mp-667308,Cs3(FeS2)2,0.0
mp-1229156,Cs3(SeO4)2,0.0
mp-1232419,Cs3Ac,0.0
mp-1112654,Cs3AlI6,2.1069999999999998
mp-1112982,Cs3AuBr6,0.0
mp-574498,Cs3Bi2,0.0
mp-1185563,Cs3Ca,0.0
mp-1206497,Cs3CoF6,0.0
mp-1194744,Cs3Cu20Te13,0.0
mp-1196135,Cs3Cu3Cl8O,0.05630000000000001
mp-1229260,Cs3Eu(Si2O5)3,0.0
mp-1207159,Cs3EuF6,0.0
mp-1106332,Cs3FeBr5,0.0
mp-1193282,Cs3FeS3,0.0
mp-1194302,Cs3FeSe3,0.0
mp-1183903,Cs3Ge,0.0
mp-1185553,Cs3Hg,0.0
mp-11027,Cs3Hg20,0.0
mp-1184038,Cs3I,0.0
mp-1213759,Cs3IrBr6O,0.0
mp-1183940,Cs3K,0.0
mp-768536,Cs3LaO3,1.8359999999999999
mp-606711,Cs3LiCl4,4.7639999999999985
mp-583278,Cs3Mo15Se17,0.0
mp-652144,Cs3Mo5P6O25,0.0
mp-622048,Cs3Mo6(P5O19)2,0.0
mp-677061,Cs3MoC6(SN2)3,0.0
mp-607931,Cs3NaLi2(BO3)2,3.4539999999999997
mp-985605,Cs3Ni,0.0
mp-510262,Cs3O,0.0
mp-16108,Cs3P6N11,4.087899999999999
mp-1113156,Cs3PdF6,0.0
mp-1064000,Cs3Pt,0.0
mp-862689,Cs3Rb,0.0
mp-1188289,Cs3Re2Cl10O,0.0
mp-1197752,Cs3Re6Se8(Cl3O)2,0.0
mp-1226687,Cs3Sb5Se9,0.2365
mp-1183907,Cs3Si,0.0
mp-1193676,Cs3Sm2N9,0.0
mp-1183952,Cs3Sr,0.0
mp-1198887,Cs3Te13Mo12,0.0
mp-581635,Cs3Te17Mo15,0.0
mp-620471,Cs3Te22,0.0
mp-569484,Cs3Ti2Cl9,0.21810000000000013
mp-1112963,Cs3TiF6,0.0
mp-1226140,Cs3TlNi3F10,4.7639999999999985
mp-1205746,Cs3UF6,0.0
mp-1105709,Cs3V(Cl3O2)2,0.0
mp-1206041,Cs3VF6,0.0
mp-1192829,Cs3Y2Cl9,4.892
mp-1113151,Cs3YF6,5.834099999999999
mp-979983,Cs3Yb,0.0
mp-558829,Cs3Yb(SO4)3,0.0
mp-1226399,Cs4FeSbCl12,0.0
mp-505186,Cs4Pr6C2I13,0.0
mp-568135,Cs4Sc6CCl13,0.0
mp-2496,Cs4Sn23,0.0
mp-510696,Cs4Sn2Au7,0.0
mp-1203903,Cs4Sr3(PO3)12,0.0
mp-1200603,Cs4Te(PO6)3,0.0
mp-1192166,Cs4Tl2O,0.0
mp-1198094,Cs4U(Ge2O5)4,0.0
mp-583424,Cs5CeCu2(NO2)12,0.0
mp-542239,Cs5Hg19,0.0
mp-966740,Cs5Tl11Cd2,0.0
mp-1198376,Cs5V5FeCl6O13,1.648
mp-569866,Cs6K7,0.0
mp-1213698,Cs6Na4Tl13,0.0
mp-585476,Cs7Np3(Cl2O)6,0.0
mp-561735,Cs7O,0.0
mp-1200207,Cs8Ga11,0.0
mp-866492,Cs9AlO4,0.0
mp-1183947,CsAc,0.0
mp-1183957,CsAc3,0.0
mp-561902,CsAg3S2,0.41100000000000003
mp-998344,CsAgBr3,0.0
mp-561920,CsAgF3,0.0
mp-1078399,CsAl,0.0
mp-561999,CsAlAgF6,0.0
mp-510370,CsAlCuF6,0.0
mp-14069,CsAlO2,4.273499999999999
mp-1192933,CsAlSiO4,4.4639999999999995
mp-1112985,CsAuF3,0.0
mp-1185548,CsAuO3,0.0
mp-1060982,CsB,0.0
mp-1087531,CsBO6,0.0
mp-1183939,CsBa3,0.0
mp-1183934,CsBaO3,0.0
mp-27192,CsBe2F5,7.180899999999999
mp-12262,CsBeF3,6.644299999999999
mp-983578,CsBiO3,0.0
mp-1213691,CsC15,0.0
mp-573066,CsC2S2N(O2F3)2,6.1689000000000025
mp-28861,CsC8,0.0
mp-984523,CsCa3,0.0
mp-1713,CsCd13,0.0
mp-1183925,CsCdO3,0.0
mp-1099115,CsCeMg14,0.0
mp-1039964,CsCeMg30O32,0.0
mp-1194418,CsCeSiS4,0.0
mp-504708,CsCoCl3,0.0
mp-1228841,CsCoCuS2,0.0
mp-616694,CsCoF3,0.0
mp-735563,CsCoH18N6(ClO2)4,0.0
mp-850504,CsCoH24(SO10)2,0.0
mp-1029491,CsCoN,0.0
mp-866025,CsCr5Te8,0.0
mp-27179,CsCrBr3,0.0
mp-1147742,CsCrC6,0.0
mp-1228892,CsCrCuF6,0.0
mp-675843,CsCrI2,0.0
mp-572903,CsCu2F5,0.0
mp-14581,CsCu2F6,0.0
mp-7785,CsCu4S3,0.0
mp-505198,CsCu4Se3,0.0
mp-1228931,CsCuNiF6,0.0
mp-1228942,CsCuRhF6,0.0
mp-1079040,CsDyBr3,0.0
mp-505418,CsDyI3,0.0
mp-1183965,CsEu,0.0
mp-1213374,CsEu(MoO4)2,0.0
mp-1019736,CsEu(PO3)4,0.0
mp-1213312,CsEu(WO4)2,0.0
mp-1185569,CsEu3,0.0
mp-8396,CsEuF3,0.0
mp-1185550,CsEuO3,0.0
mp-1076928,CsEuS2,0.0
mp-1192887,CsEuSiS4,0.0
mp-542475,CsFe2S3,0.0
mp-662563,CsFe2Se3,0.0
mp-1120753,CsFe4As3,0.0
mp-1196464,CsFeAgF6,0.2365
mp-29400,CsFeCl3,0.0
mp-1228920,CsFeCuF6,0.0
mp-1228825,CsFeCuS2,0.0
mp-1192997,CsFeP(H6O5)2,0.0
mp-505632,CsFeS2,0.0
mp-1191527,CsGa2Au3,0.0
mp-1192476,CsGa9Au5,0.0
mp-1225926,CsGaCuF6,0.0
mp-17688,CsGaTe2,1.503
mp-1185562,CsGd,0.0
mp-984051,CsGeO3,0.0
mp-24110,CsH18RuN6(ClO2)4,0.0
mp-1213652,CsH2CN5,4.058199999999999
mp-696986,CsH2CO3,3.4219999999999997
mp-1006815,CsH3,0.0
mp-1228884,CsH3(SeO3)2,4.1389999999999985
mp-28204,CsH7O4,4.5889999999999995
mp-1016377,CsHfMg6,0.0
mp-1033715,CsHfMg6O7,0.0
mp-1080797,CsHg,0.0
mp-540849,CsHg(NO2)3,0.0
mp-574379,CsHg2,0.0
mp-1185577,CsHg3,0.0
mp-1228835,CsHgBr2Cl,0.0
mp-1228820,CsHgBrCl2,0.0
mp-1183937,CsHo,0.0
mp-1183916,CsHo3,0.0
mp-13259,CsHoCoSe3,0.0
mp-1232361,CsIn(Cu3O4)2,0.0
mp-542339,CsIn3,0.0
mp-1225976,CsInCuF6,0.0
mp-1225902,CsK,0.0
mp-1225963,CsK(Fe2S3)2,0.0
mp-571371,CsK2BiCl6,3.9160000000000004
mp-1111974,CsK2NbF6,0.0
mp-1112304,CsK2PdF6,0.0
mp-1078821,CsK2Pt,0.0
mp-1185542,CsK2Rb,0.0
mp-1112313,CsK2RuF6,0.0
mp-1112268,CsK2TaF6,0.0
mp-1112052,CsK2TiF6,0.0
mp-10767,CsK2Yb(PO4)2,0.0
mp-1185554,CsK3,0.0
mp-1192978,CsK7Rb5,0.0
mp-1098049,CsKMg6,0.0
mp-699557,CsKMo4(P3O13)2,2.337
mp-984357,CsKO3,0.0
mp-1183953,CsKRb2,0.0
mp-1183956,CsLa,0.0
mp-1183949,CsLa3,0.0
mp-1021161,CsLaMg6,0.0
mp-1183918,CsLaO3,0.0
mp-1213020,CsLaW2,0.0
mp-642740,CsLi(H2N)2,1.9969999999999999
mp-606680,CsLi2Br3,4.559699999999999
mp-1213008,CsLi2C,0.0
mp-755891,CsLiH4SO5,4.507499999999999
mp-1099243,CsLiMg6O7,0.0
mp-561689,CsLiMoO4,4.4239999999999995
mp-1206673,CsLiN2,0.0
mp-1036504,CsMg14AlO16,0.0
mp-1099218,CsMg14BO16,0.0
mp-1099222,CsMg14CrO16,0.0
mp-1099214,CsMg14GaO16,0.0
mp-1099321,CsMg14Si,0.0
mp-1099219,CsMg14SiO16,0.0
mp-1099220,CsMg14WO16,0.0
mp-1016231,CsMg3,0.0
mp-1099234,CsMg6AlO8,0.0