task_id,pretty_formula,band_gap
mp-760468,LiSi2BiO6,3.3344
mp-760489,PH6NO2,5.0661000000000005
mp-760501,TiGa2O5,2.7831
mp-760510,Sr2Bi2O5,2.2664
mp-760512,LiCuCO3,1.8629
mp-760582,Li2AgF3,2.127
mp-760595,CuCO3,0.1027
mp-763769,Li2Fe(PO3)4,4.3505
mp-763778,Li2Ni3TeO8,0.4638000000000004
mp-763780,Fe(PO3)3,2.0249
mp-763785,LiMn2OF3,1.8294
mp-763786,Li6Mn(OF2)2,2.6105
mp-763790,Mn(PO3)3,1.0864
mp-763791,Mn(PO3)4,0.16149999999999998
mp-763793,Li2Mn3F8,3.3624
mp-763794,Li2Mn2F7,0.6111
mp-763803,Li2Mn2F7,1.2666
mp-763806,Li4(NiO2)5,0.10650000000000004
mp-763816,Fe3(OF2)2,1.3659
mp-763818,Li5MnO3F,0.3656999999999999
mp-763822,LiMnF4,0.7841
mp-763823,Cr(Bi7O12)2,0.19600000000000015
mp-763827,RbLiVPO5,2.3445
mp-763831,Li8Mn(O2F)2,2.4668
mp-763832,Li3MnPCO7,3.7331
mp-763835,V3Cr3(TeO8)2,1.1065
mp-763836,Li3MnP2HO8,4.417
mp-763840,Rb2LiV(PO4)2,2.1295
mp-763841,SrLiVPO6,1.9488000000000003
mp-763844,Li2VO2F,1.7317999999999998
mp-763847,RbLiMnP3HO10,3.3555
mp-763848,Ti3Fe9O16,1.2658999999999994
mp-763849,Li(FeO2)3,0.4218000000000002
mp-763852,Li2VFe(P2O7)2,1.8512
mp-763854,Mn3OF6,0.4776
mp-763855,Li2VCr(P2O7)2,2.1061
mp-766972,LiMn2O2F3,0.7375999999999999
mp-766976,Li4Mn3OF11,1.4098000000000002
mp-766977,Li3Mn(OF)2,1.2029999999999998
mp-766984,Li2Fe(Si2O5)3,0.33240000000000003
mp-766985,V(PO3)4,1.5391
mp-766993,Li2MnO2F,0.8597000000000001
mp-767006,Li2Mn2OF6,1.504
mp-767013,FePO4,2.5838
mp-767015,Li2VSiO4,1.75
mp-767020,CoPO4,0.9736
mp-767021,CrPO4,1.3818
mp-767024,Li2VCrP2(O4F)2,2.0572
mp-767025,Li2MnO2F,1.0842999999999998
mp-767027,Li4FeSi2O7,3.442
mp-767030,LiVSiO4,1.9342
mp-767033,LiVSiO4,0.8512999999999993
mp-767035,Zr7VO16,1.9250000000000005
mp-767036,Li2Co(CO3)2,2.4529
mp-767037,LiV(PO4)2,1.0161
mp-767038,LiVSiO4,2.2075
mp-767039,Sn8P2O13,1.7724000000000002
mp-767050,LiVSiO4,2.5999
mp-767052,Ni(PO3)3,0.1716
mp-767053,Li2Co(CO3)2,2.3683
mp-767056,Li2MnO2F,1.0974
mp-767057,SrLiLa3MnO8,1.6632999999999996
mp-767059,LiVSiO4,2.3421
mp-767068,LiVSiO4,2.6860000000000004
mp-767071,Li2Co(CO3)2,2.8048
mp-767074,LiMn2(PO4)2,0.7093
mp-767076,Sn(PO3)2,3.7461
mp-767092,LiVSiO4,2.495
mp-770538,Mn2PO5,0.7572999999999999
mp-770541,Mn2PO5,0.8653999999999997
mp-770550,Li2AlCoO4,1.6962000000000002
mp-770555,MnPO4,0.5388
mp-770558,MnP2O7,1.3002
mp-770563,Mn3(PO4)2,2.8617
mp-770569,ZnCrO4,2.0907
mp-770570,Dy2WO6,3.7745
mp-770571,Ho2WO6,3.7755
mp-770575,LiCrPO4F,2.6156
mp-770578,GeWO4,1.4061999999999997
mp-770584,Sr3WO6,3.4214
mp-770589,Li3Al2FeO6,2.346
mp-770590,VGa2O5,1.6995999999999998
mp-770604,Li2CoH8(CO5)2,3.1877
mp-770605,ZrCrO3,1.3886000000000005
mp-770609,Tl6WO12,0.12929999999999975
mp-770610,Li2AlCoO4,1.6853999999999998
mp-770613,Tb2WO6,2.4635000000000007
mp-770619,Li24Mn11CrO36,1.2342000000000002
mp-770624,Li2CoPO4F,2.9606000000000003
mp-770627,Li2MnFeO4,0.17870000000000008
mp-770629,Li2AlFeO4,3.0927
mp-770639,Y2W2O9,3.4602
mp-773996,Li2CrO4,2.4691
mp-774010,Li2NbV3O8,1.21
mp-774016,Li2NbV3O8,1.1083000000000005
mp-774019,Mn3TeO8,0.6513
mp-774020,LiVPO4,1.8992999999999995
mp-774021,Ti3Mn2Cr(PO4)6,0.040400000000000436
mp-774040,Li3Co2(PO4)3,0.7849000000000002
mp-774048,Fe4OF7,1.9254
mp-774050,V4OF11,1.5045
mp-774073,LiV2(SiO4)2,0.8243
mp-774074,Na2Sb4O11,1.8422
mp-774076,Li4Mn3Fe(BO3)4,2.9623
mp-774077,Li7FeO5F,0.6829
mp-774078,Li2MnFe(BO3)2,3.1274999999999995
mp-774083,Li2Ti2VO6,1.0692999999999997
mp-774097,Ni3OF5,0.6937
mp-774416,Ti3Cr(PO4)6,0.4171
mp-774417,Sn3P6WO24,2.7096
mp-774418,TiV3(PO4)6,0.8519
mp-774423,V3Cu(PO4)6,0.5346
mp-774426,Nb3Cr(PO4)6,2.6069
mp-774430,Li2MnF4,4.592
mp-774433,LiMnPO5,0.13850000000000007
mp-774463,Li3Cr2(PO4)3,2.8011
mp-774472,PrSO,1.4090000000000007
mp-774482,KLiTi2(PO5)2,3.012
mp-774523,Li3Sb2(PO4)3,2.9263000000000003
mp-779064,Li4FeOF5,3.0088
mp-779071,LiV2(OF)3,0.4645999999999999
mp-779072,Li4MnFe3(BO3)4,3.1541
mp-779073,LiMnF3,3.7829
mp-779074,Li8Mn7Fe(BO3)8,2.8964
mp-779079,Ti3V2P6WO24,0.07430000000000002
mp-779084,LiCr(PO3)3,3.1423000000000005
mp-779086,LiCr(PO3)4,2.8151
mp-779087,Li3Mn2Fe(BO3)3,2.6445
mp-779090,VO2F,1.1421
mp-779091,LiFe4(BO3)4,1.173
mp-779092,Li24Ti11CrO36,1.4654999999999998
mp-779094,Fe10O11F9,0.3127
mp-779096,Tm3TaO7,3.5119
mp-779156,CdSeO4,1.94
mp-779167,Li8Mn7Fe(BO3)8,2.9821000000000004
mp-779169,Li3MnF6,1.6087
mp-779171,LiCr(PO3)3,2.8768
mp-779172,Fe5(OF4)2,1.415
mp-779175,Li8Mn7Fe(BO3)8,2.9028
mp-779177,Li3MnV(PO4)3,0.2985
mp-779182,LiMnF3,3.2957
mp-779184,Li3MnV(PO4)3,0.43110000000000026
mp-779186,Li3Co2(SiO4)2,0.02200000000000002
mp-779188,Fe5O3F7,1.0759
mp-779190,LiVF4,2.6597
mp-779192,LiCoSiO4,1.3233
mp-779199,V3OF11,1.8997
mp-779211,Li2MnFe(BO3)2,3.1309000000000005
mp-779213,Li6MnFe5(BO3)6,2.8451999999999997
mp-779218,Li8MnFe7(BO3)8,3.1564999999999994
mp-779219,Li8Mn7Fe(BO3)8,2.8867
mp-779222,Li3Co2(SiO4)2,0.14669999999999986
mp-779227,Li24Ti11CrO36,1.4433999999999998
mp-865526,TmSb(PbO3)2,2.5855
mp-865605,YBr3,2.9454
mp-865865,Yb(ErS2)2,1.4663999999999997
mp-865973,PHPb2F10,5.4791
mp-866078,NaNd(SO4)2,5.653
mp-866267,YbMoClO4,2.3301
mp-866339,Cd(PO3)2,4.0086
mp-866387,LiY(MoO4)2,2.9730000000000003
mp-866474,Ca2SnS4,2.0314999999999994
mp-866482,CsSi,1.2115
mp-866495,CaSnS3,0.6807999999999996
mp-866649,NaSc(BH4)4,4.8658
mp-866695,ReTeSeCl4,2.3069
mp-866713,ReTeSCl4,2.3274
mp-866807,TiZnH12(OF)6,3.3477
mp-866811,CaSnS3,0.7503000000000002
mp-866818,Ca2SnS4,1.0795
mp-866827,Ca3Sn2S7,0.4588000000000001
mp-866829,Ca2SnS4,1.0664000000000002
mp-866830,Ca3SnS5,1.0141
mp-866834,Ca2SnS4,1.9708
mp-866850,CaSnS3,0.4246999999999996
mp-866863,Ca3SnS5,2.1946000000000003
mp-866936,CaSnS3,0.2488000000000001
mp-640531,Sr2CoTeO6,1.6176
mp-640553,BaNb2O6,1.7859
mp-640890,Rb4Fe2O5,1.8579
mp-641365,PbWO4,2.9279999999999995
mp-641366,BaWO4,2.6941
mp-641534,Nd3CuSiSe7,1.3323
mp-641539,Si3N4,3.5562000000000005
mp-641896,Mg(FeO2)2,1.5535
mp-642250,LaFe12O19,0.963
mp-642398,RbVSO6,1.8148
mp-642817,KHO,3.6397
mp-683952,SiO2,1.3132
mp-683953,SiO2,1.4904000000000002
mp-683983,TaO2,0.7658
mp-684029,CdI2,2.3629
mp-684640,MoCl3,1.1925
mp-684652,BeF2,6.8001999999999985
mp-684654,Bi2O3,1.1857999999999995
mp-684680,Yb2S3,1.4034999999999995
mp-684694,Yb2Se3,0.7920999999999996
mp-684708,Er2S3,1.9719
mp-684721,TiNb2Zn(PbO3)4,0.2296999999999993
mp-736390,SrH3C3O7,2.8362
mp-738612,ZnH16C3N8O7,4.7905
mp-740731,Al2H12(SeO5)3,4.6404
mp-743133,NiH12(BrO7)2,3.0380000000000003
mp-743178,FeH8(ClO2)2,3.7971
mp-743598,TiCdFe(PO4)3,2.2585
mp-743600,ZrFeP3PbO12,2.3786
mp-760599,TiSn(PO4)2,1.6575000000000002
mp-760629,LiBiP2O7,3.5501
mp-760635,Yb4Br6O,3.0092
mp-760637,LiBiP2O7,3.707
mp-760650,Li3Bi(PO4)2,3.4539000000000004
mp-760664,LiCu(PO3)2,0.8632
mp-760676,LiCu2PO4,0.4204000000000008
mp-760678,Sb2H4AuF16,0.8936000000000001
mp-760701,LiNbO3,3.4191000000000003
mp-760758,Bi3O4F,2.1905
mp-760781,Li2AgF4,0.5616999999999999
mp-760798,Li2CuF5,0.8027000000000002
mp-760805,Li2AgF3,1.9409
mp-760927,NaTiPO5,2.7735000000000003
mp-761019,Hf2N2O,2.1159
mp-761108,BiOF,2.3786
mp-761135,Li3Sb2(PO4)3,3.3393
mp-761140,Na4Ti7O16,2.4748
mp-761148,Ti9SnO20,1.7902
mp-761151,Zr6O11,0.3600000000000003
mp-761190,LiCu(PO3)3,0.4722
mp-761252,RbPH3O4F,5.7119
mp-761285,Sc2V2O7,0.6056999999999997
mp-761287,Ca2WO5,3.0116
mp-761292,Li2FeBO4,2.8278
mp-761294,V2Ge2O7,1.9188
mp-761296,VAsO4,1.7336
mp-761297,Na5LiCo2P2(CO7)2,2.660200000000001
mp-761300,LiFeB2O5,2.0450000000000004
mp-761303,LiNiBO3,3.1533
mp-761305,LiFe(Si2O5)2,2.9057
mp-761307,TiV2O7,2.0311
mp-761308,Li2MnNb3O8,0.15270000000000028
mp-761309,TiNi(PO4)2,2.2899000000000003
mp-761332,LiFeSiO4,2.3334
mp-761334,LiVPO4,2.5282
mp-763861,Li2VFe(P2O7)2,1.6987
mp-763862,Li2VFe(P2O7)2,1.7203999999999997
mp-763865,V6O5F8,0.3929
mp-763868,Li2VCr(P2O7)2,2.1997
mp-763872,LiMnOF2,1.0971
mp-763873,Li2Ni(CO3)2,2.1319
mp-763877,Li2VCrP2(O4F)2,2.1005000000000003
mp-763880,Li2VCrP2(HO5)2,1.9209
mp-763882,Li2VCrP2(O4F)2,2.0115000000000003
mp-763885,LiMnOF2,0.4128
mp-763898,NaVPO5,1.6149
mp-763906,Li2VCrO4,1.7347000000000006
mp-763908,V3O5F,0.3035999999999999
mp-763912,V3O5F,0.4180999999999999
mp-763916,Li5Cr3FeO8,2.0458
mp-763919,LiCo2OF3,1.8332
mp-763922,Li2FeCo3O8,0.1896
mp-763929,Ni3OF5,0.8173999999999999
mp-763933,Li3CrFe3O8,0.6261000000000001
mp-763939,VOF,0.9899999999999998
mp-763945,V4O5F7,0.5948
mp-763946,NaFePO4,3.7034
mp-763947,V2O3F,1.1204999999999998
mp-763952,Co3OF5,0.05889999999999995
mp-763956,Li3Mn(PO4)2,0.2591999999999999
mp-763957,V3(O2F)2,0.218
mp-763971,Li3VFe3O8,1.2155999999999998
mp-763977,Na6NiO4,1.4289999999999998
mp-763983,V2O3F,1.2266999999999997
mp-763986,V3O5F,0.4802
mp-763992,V6O11F,0.8278999999999996
mp-767093,LiFe2(PO4)2,2.1484
mp-767094,LiFe2(PO4)2,1.5367000000000002
mp-767095,Li2MnOF3,1.8858
mp-767098,LiMn2O3F,0.0015000000000000568
mp-767103,LiVSiO4,2.6307
mp-767104,Li2Cr(CO3)2,2.4177
mp-767105,LiFe2(PO4)2,1.3619
mp-767112,Li4Mn3OF11,0.8136
mp-767115,LiMn2O3F,1.1188000000000002
mp-767116,Li2MnO2F,0.977
mp-767118,Li2Mn2OF6,1.3434
mp-767121,Li2MnO2F,0.637
mp-767124,Li2MnO2F,1.0404
mp-767128,Li2CoSiO4,2.7203
mp-767129,WOF4,5.0486
mp-767148,P2WO8,1.9197
mp-767149,Li2FeSi3O8,2.6144
mp-767153,LiCo2(PO4)2,0.33609999999999995
mp-767156,LiMnOF2,0.6405
mp-767161,Li4MnF7,2.1900000000000004
mp-767166,Li2V(CO3)2,2.8253
mp-767167,LiCo2(PO4)2,0.9205
mp-767188,LiMn2OF3,1.5709000000000002
mp-767190,VOF,1.5280999999999998
mp-767215,LiMn(PO4)2,0.1032
mp-767216,LiMn(PO4)2,0.5891000000000002
mp-767221,LiFe2(PO4)2,1.4302
mp-767225,LiFe2(PO4)2,1.5209
mp-767227,LiMn2(PO4)2,0.2232
mp-767228,LiFe2(PO4)2,1.6052
mp-767231,Li8Cr3SbO12,0.6212
mp-767236,LiFe2(PO4)2,1.2584
mp-767253,LiFeSiO4,2.874
mp-767267,Li2MnVO4,0.7517
mp-770645,Li8HfO6,3.9011
mp-770648,Li8ZrO6,4.0226
mp-770653,Sr3W2O9,2.6749
mp-770663,Li2FeBO4,2.3322000000000003
mp-770667,Li24MnCr11O36,0.9246
mp-770668,Li24Mn11CrO36,1.24
mp-770672,Na2LiMnPCO7,3.3858
mp-770678,Li2Cr2O7,2.4367
mp-770694,Li6Cr2O7,0.7728000000000002
mp-770698,Li2AlFeO4,2.9327000000000005
mp-770699,KLiMnO2,1.0669999999999995
mp-770700,Li2Ti3O7,2.8666
mp-770702,Li2AlFeO4,2.3434
mp-770703,LiSbWO6,2.4585000000000004
mp-770704,Li2AlFeO4,3.0421
mp-770718,Mg(IO3)2,3.1063
mp-770733,Li2AlFeO4,3.0507
mp-770735,ZnCrO4,2.2854
mp-770739,LiTiFeO4,2.1957000000000004
mp-770745,Li2Cr2O7,1.521
mp-770748,Gd3TaO7,2.6961
mp-770752,Ce(WO4)2,1.7063
mp-770771,SrSc2O4,3.4364
mp-770778,VCrO3,1.3705000000000007
mp-770799,Li5NbO5,3.9186
mp-770805,Li6Hf2O7,4.2889
mp-770806,Sm2TiO5,3.3039
mp-770830,HoBiO3,2.7472
mp-774586,Nb3Sb(PO4)6,1.1879000000000002
mp-774658,LiSnPO4,3.215
mp-774732,Li5BiS4,1.2581000000000002
mp-774736,LiCuS,1.6984
mp-774749,RbNa3Li12Ti4O16,4.3103
mp-774763,Ti3Sb2(PO4)6,2.1441
mp-774802,NbCu(PO4)2,0.3009999999999997
mp-774910,LiSb(TeO4)3,1.2243000000000004
mp-774942,Li2V3CuO8,0.5696000000000003
mp-774951,Li2MnCr3O8,0.6859999999999999
mp-775006,Mn2CrO6,0.5397999999999998
mp-775008,V3Cr(PO4)6,1.1002
mp-775012,Li3Co2(PO4)3,0.02629999999999999
mp-775018,TiFe(PO4)2,1.7830000000000001
mp-775035,Li2NiSnO4,2.1678
mp-775042,V4CoNiO12,2.1736
mp-775044,LiVO3,2.0872
mp-775048,LiCrFeO4,0.7231999999999998
mp-775050,Na2FeO4,1.2755
mp-775054,Ti3Mn3(TeO8)2,0.2400000000000002
mp-775056,Li2MnCr2O6,1.2518000000000002
mp-775057,Li2Mn(NiO3)2,0.7609999999999997
mp-775060,LiTiFeO4,2.0614
mp-775075,LiV3O8,1.8409
mp-775085,Li2Cr2FeO6,0.3237999999999999
mp-775088,Li2Mn2CoO6,1.0768
mp-775110,Li2Ti3CoO8,1.7291000000000003
mp-775115,Li2TiMnO4,0.3027000000000002
mp-779234,Li8Mn7Fe(BO3)8,2.9053000000000004
mp-779238,LiFeP2H5O9,3.5691
mp-779239,Li3MnV(PO4)3,0.3245
mp-779241,LiCu5(PO4)2,0.08659999999999979
mp-779243,Fe3(OF2)2,1.3245999999999998
mp-779245,Mn3(OF2)2,0.25849999999999995
mp-779246,Fe3(OF2)2,1.3084000000000002
mp-779248,Na2FeO3,0.6359000000000001
mp-779255,V3O5F,0.3394000000000004
mp-779256,V2OF5,1.9184
mp-779257,Li3Cu3(PO4)2,0.7500999999999998
mp-779266,Li3Si2(NiO4)2,0.9791999999999998
mp-779305,Li2FeBO4,2.6808
mp-779311,LiFeBO3,2.9857
mp-779315,VOF,0.7536999999999998
mp-779316,VOF,0.8796000000000004
mp-779355,Li3MnF5,4.3604
mp-779360,VOF,1.5008
mp-779369,Fe5(OF4)2,0.1221000000000001
mp-779376,Na2V2O5,0.9734
mp-779391,V3(O2F)2,0.3470000000000004
mp-779428,Sr4HfO6,3.7468
mp-779453,BaNa6O4,1.6482
mp-779456,Y2ReO5,0.8513000000000002
mp-779502,Na3CuO2,1.605
mp-779608,Ba3(BO3)2,3.1069
mp-779704,Si(HgO2)2,1.2322
mp-867590,LiCu2F5,0.4065
mp-867649,LiTi(Si2O5)2,0.5326999999999993
mp-867680,NaTlO,0.12119999999999995
mp-642845,Rb3H5Pt,2.7381
mp-643022,Rb3H5Pd,2.7285
mp-643043,RbHO,3.1022
mp-684956,Tl2O3,0.1854
mp-685281,TiZnH12(OF)6,3.0958
mp-689684,P2O5,1.1181
mp-689929,LiV(PO4)2,1.3530000000000002
mp-690122,Nd2Mo2O7,1.3538
mp-690452,LiMn4(PO4)3,2.8719
mp-690470,NbCrO4,0.5449999999999999
mp-690490,TiVO4,0.9899999999999998
mp-690517,La2NiO4,2.191
mp-690526,VCl2O,1.6191
mp-690560,TiTlWO5F,2.8041
mp-690794,Sr2HN,1.807
mp-690978,La5Ti6S3(ClO5)3,1.7618999999999998
mp-691091,Na2Al2Si3(HO3)4,2.8883
mp-691154,Co(IO3)2,2.5683
mp-693132,ZnGaP2H4NO8,3.615
mp-693773,ScH16C3S3O17F9,3.9360000000000004
mp-694891,KRb2Mo(OF)3,3.0236
mp-694898,Sr5La3Mn4(WO6)4,2.1072
mp-694925,Ti7(Fe3O8)3,1.1948000000000003
mp-695074,KNa3Al4(SiO4)4,4.0624
mp-695079,RbAl6H20N5F24,2.8341
mp-695119,Na3Zr2Si2PO12,4.4926
mp-695237,Rb2PH3SO8,0.7542
mp-704637,Nb12WO33,1.8904
mp-704848,V2Re2O11,1.2164
mp-705024,VP2O7,1.3524
mp-705035,Mo(PO3)4,1.8481
mp-705056,LiVP2O7,1.9593
mp-705069,LiMnPO4,3.2117
mp-705083,NaFe2(MoO4)3,0.8429
mp-705116,Sr2MnMoO6,1.0287000000000002
mp-705305,V(PO3)3,1.9533
mp-705314,Li3V3P8O29,1.2774
mp-705336,Li2Co3(P2O7)2,2.7885
mp-705527,ReH(CO)4,2.8664
mp-752429,ScTlO3,0.9279999999999996
mp-752437,SmInO3,2.6396999999999995
mp-752450,Ba2SrI6,2.5702000000000003
mp-752460,LiAgF4,0.7818
mp-752477,K3NaFeCl6,0.011299999999999866
mp-752533,SrLa2O4,2.7904
mp-752537,Sr2HfO4,3.4581
mp-752581,Sr2HfO4,3.9466
mp-752637,HoBrO,4.3862000000000005
mp-752676,TiBi2O5,2.5795000000000003
mp-752684,BaTm2O4,2.8879
mp-752691,Sr3Hf2O7,4.1002
mp-752724,Ho2TiO5,3.0358
mp-752725,LiAgF2,1.2719
mp-752726,BaLa2O4,2.6830000000000003
mp-752753,SbO2F,1.4267
mp-752754,Hf2N2O,0.34830000000000005
mp-752755,NaSbO3,1.7037000000000004
mp-752768,LiAgF4,1.1185999999999998
mp-752882,LiAgF2,1.5272
mp-752910,Na3BiO4,0.5991
mp-752927,LiAgF2,1.6817
mp-752949,BiOF,3.2938
mp-752989,Ti8O13,0.1144999999999996
mp-753009,Li2AgF3,1.7102
mp-753063,Li3CuF6,0.6689999999999999
mp-753123,Li2CuF4,0.254
mp-753153,Dy2CO5,4.4368
mp-753160,BiOF,3.3538
mp-753164,YbTiO3,3.5820000000000003
mp-753192,Yb4Sb2O,0.6339999999999999
mp-753226,SmAgO2,2.4833
mp-753260,LaAgO2,2.8267
mp-753268,Li6CuF8,0.4052
mp-753299,LiAgF2,1.2702
mp-761352,LiMnSiO4,0.9032
mp-761401,LiCrPO4,1.2332999999999998
mp-761412,BaMnO3,0.8081
mp-761897,LiCuF3,0.5463
mp-761941,Li2Cr3WO8,2.3180000000000005
mp-761957,Li2Mn3CoO8,1.3741
mp-761965,LiCoPO4,2.4382
mp-761980,Co(Bi5O8)5,0.8454999999999995
mp-761982,LiCoSnO4,1.2193
mp-761988,LiNiPO4,3.1407
mp-761990,LiNiPO4,2.5709
mp-761992,Li2Fe2(CO3)3,3.1623
mp-762008,LiNiPO4,3.0821
mp-762018,LiCoPO4,3.1973
mp-762054,Li2NbCo3O8,0.7380999999999998
mp-762111,Li2CuPO4,2.0687
mp-764027,Li2VO2F,0.9741
mp-764035,Ni3OF5,0.7108999999999999
mp-764060,Na2VO3,1.7775
mp-764062,LiCo2OF3,2.0411
mp-764101,Ni6OF11,0.5209000000000001
mp-764105,NaNiPO4,3.1525
mp-764145,NaMnO4,1.9124
mp-764160,Li5VCr3O8,0.6195000000000004
mp-764170,Na6CoO4,0.8425999999999998
mp-764218,Li2V(OF)2,1.9797
mp-764221,Cr2OF2,2.2239
mp-764226,Li2VF4,2.701
mp-764228,VOF3,3.0935
mp-764229,LiV(OF)2,2.0841
mp-764232,VO2F,3.0505
mp-764266,LiMnOF2,0.8498
mp-764274,VOF3,3.4012
mp-764278,Li3MnF5,4.7264
mp-764280,Li2MnF4,4.0131999999999985
mp-764322,VOF,1.5286000000000004
mp-764324,Li2VF4,2.7448999999999995
mp-764325,V3(OF)4,0.6841000000000002
mp-764327,V2O3F,1.281
mp-764336,Li4Mn3OF8,2.225
mp-764337,LiMnF3,3.7869
mp-764356,V2OF4,1.6564
mp-764357,V2OF5,1.7996
mp-764365,W(OF)2,1.7757
mp-764372,KCoO2,0.5055
mp-764375,Li2VF6,1.9708
mp-764379,V2O2F3,1.2749
mp-767283,LiFeSiO4,2.5873
mp-767329,Li3TiCr3O8,1.9035999999999995
mp-767337,Li2SiNiO4,3.0798000000000005
mp-767357,NiH12SO9,4.1294
mp-767362,LiNiPO4,3.1167000000000007
mp-767455,SrLiLa3FeO8,0.9437000000000006
mp-767588,LiMnF5,0.5943
mp-767610,Mn2O3F,1.4567
mp-767620,LiVSiO4,1.3802000000000003
mp-767771,P3W2O13,2.1023
mp-767794,LiVSiO4,1.5717999999999996
mp-770868,VWO4,0.6270999999999995
mp-770899,Li2V3O8,1.991
mp-770931,CuTeO4,0.3853
mp-771429,Li(NiO2)2,0.3373999999999997
mp-771456,TeWO6,1.8189
mp-772323,Li2Cr4O13,1.4994
mp-772351,NbVO5,2.0402
mp-775117,Cr(CoO3)2,0.6375000000000001
mp-775130,Li2CrO3,0.4933999999999998
mp-775155,Li4FeOF5,2.9748
mp-775175,LiVFeO4,1.1497000000000002
mp-775178,LiFe2OF3,2.0694
mp-775278,Li2MnV3O8,1.3458
mp-775284,Li2Mn3NiO8,1.5294
mp-775354,Li5NiO4,1.6658
mp-775372,Li5SbS,1.5770000000000002
mp-775392,Li2Ti3MnO8,1.7513000000000003
mp-775432,Li2V3TeO8,1.1921
mp-775435,Li3MnV(PO4)3,0.2565999999999997
mp-775440,Li2Cr3NiO8,0.6016999999999997
mp-776823,La2Nb2N2O5,1.5686
mp-776825,BaY3F11,6.1381000000000006
mp-776827,LiFeF4,3.3661000000000003
mp-776833,Li2Fe3SbO8,2.0734
mp-779908,Na2FeO3,0.2871000000000001
mp-779941,CrO3,1.5649000000000002
mp-779963,V6O7F5,0.26469999999999994
mp-779964,Li5MnO4,1.4388999999999998
mp-779970,LiFe2F5,3.2451
mp-779986,CrO3,1.2356
mp-779988,SrLiLa3MnO8,1.5871000000000004
mp-779991,Li2Cr3FeO8,0.3826000000000001
mp-780002,V2O3F,1.1841
mp-780053,Na2Ge2O5,2.9825
mp-780060,Hf2N2O,2.0671
mp-780061,Hf2N2O,1.9270000000000005
mp-780087,LiMnSiO4,1.1322000000000003
mp-780092,V6O5F19,2.041
mp-780098,LiCoSnO4,0.3744000000000005
mp-780113,LiMnP2HO7,4.0102
mp-780119,V6O11F,0.4582999999999999
mp-868417,Li3CoO3,1.2076000000000002
mp-868632,MnOF,0.4628
mp-868843,MnCo3O8,0.9383
mp-975666,PrBrO,4.462999999999999
mp-995147,PbBrCl,3.0727
mp-995193,Si3H,0.8977000000000004
mp-995197,HC,3.5572000000000004
mp-995198,CO2,4.2235
mp-995206,H2CO,2.4383
mp-995220,H4C2O,4.8772
mp-995224,CO2,5.2707
mp-995227,H6PbCI3N,1.594
mp-995232,H6PbCBr3N,1.9688
mp-995237,SiH6CI3N,0.815
mp-996953,CuHO2,0.5657000000000001
mp-753360,BiOF,3.0514
mp-753418,SrNd2O4,3.6022
mp-753425,LiCuCO3,1.7011
mp-753459,Nb3O7F,1.4918
mp-753508,LiCuS,0.7014999999999998
mp-753541,LiCuF4,1.0145
mp-753594,BiOF,2.6397
mp-753605,LiCuS,0.9218000000000002
mp-753619,BaSrO2,2.2522
mp-755089,ZrO2,3.9597
mp-755109,YErO3,4.5444
mp-755121,TiBi2O5,1.7454
mp-755128,SmTlO2,1.7431
mp-755138,NdInO3,2.6533
mp-755141,NaHoO2,4.0621
mp-755165,YScO3,4.4324
mp-755175,Al2O3,5.4924
mp-755213,YbCO3,4.1307
mp-755219,ScTlO2,0.8223000000000003
mp-755313,Sc2O3,4.127599999999998
mp-755315,BaTl2O4,0.009199999999999877
mp-755317,Y2TeO6,3.0839000000000003
mp-755323,DyClO,5.168800000000001
mp-755333,HgO2,0.3387
mp-755336,NdIO,3.5759
mp-764383,MnFeCo(PO4)3,0.5416999999999998
mp-764384,Li2Mn4OF8,1.2026
mp-764393,LiV(SO4)3,1.1113
mp-764398,VOF3,3.0291
mp-764408,LiMnF4,1.8855
mp-764409,Li2CrO3,0.6244999999999998
mp-764415,MnFeCo(PO4)3,0.5134000000000003
mp-764419,Li3V2(O2F)2,0.9678000000000002
mp-764421,Li3V2(O2F)2,1.0161000000000002
mp-764430,Li2MnF6,2.4655
mp-764434,Li2VF6,1.9285
mp-764447,LiFe2(BO3)2,1.7324
mp-764464,Li5Fe8(BO3)8,1.4949
mp-764465,LiFe2(BO3)2,1.6068999999999998
mp-764469,LiFe2(BO3)2,1.4644
mp-764472,LiFe4(BO3)4,1.4752000000000005
mp-764473,NaCo3O4,0.023800000000000487
mp-764478,LiFe8(BO3)8,1.3932999999999998
mp-764482,LiFe2(BO3)2,1.5637
mp-764483,LiFe2(BO3)2,1.5273
mp-764484,LiMnV(P2O7)2,1.3442000000000005
mp-764486,Li3Fe4(BO3)4,1.6499
mp-764489,LiFe2(BO3)2,1.56
mp-764490,LiFe2(BO3)2,1.9411
mp-764492,LiFe8(BO3)8,1.245
mp-764493,Li5Fe8(BO3)8,1.2956
mp-764756,Li6MnV3(PO4)6,0.5298000000000003
mp-764757,Li3V2(O2F)2,0.9239000000000002
mp-764760,LiVOF3,2.1361
mp-764779,Ni6OF11,0.5192
mp-764783,LiMnF3,2.712
mp-764788,LiMn2OF3,1.8555
mp-764789,LiMn2OF3,1.0545000000000002
mp-764796,Li3Fe8(BO3)8,1.6373
mp-764797,Li3V2(O2F)2,0.7641
mp-764798,Li5Fe8(BO3)8,1.4374
mp-764799,LiFe2(BO3)2,1.7641
mp-764800,LiFe4(BO3)4,1.4796999999999998
mp-764802,Li2VF6,1.75
mp-764815,Li3Fe8(BO3)8,1.7432999999999998
mp-764819,VOF2,1.0933
mp-764822,Li2VO2F,0.9658999999999996
mp-764824,Li5Fe8(BO3)8,1.3735
mp-764830,VOF,1.1324999999999998
mp-769262,K5YO4,2.2966
mp-769263,TbInO3,2.5935
mp-769268,Sr4Ta2O9,4.1431
mp-769271,Sr4Ta2O9,4.1957
mp-769280,Ca5Ta4O15,2.9774