task_id,pretty_formula,band_gap
mp-759288,GaH5(NF)2,2.7104999999999997
mp-761716,MnFe2O3,0.0
mp-762033,Li3V3P8O29,0.9409000000000001
mp-762141,Li7V3P8O29,0.46340000000000003
mp-762439,Li14Cu9(P2O7)8,0.29380000000000006
mp-762481,Li8V3P8O29,0.021199999999999886
mp-762515,Li2Cu3(CO3)3,0.0
mp-762604,Li8VFe7(PO4)12,0.0
mp-764584,Na2FeO3,0.0
mp-764674,Co2OF3,0.0
mp-765529,Li2MnCoO4,0.0
mp-766932,Mn5O7F,0.0
mp-767954,Li2FeSiO5,0.0
mp-768995,Ba2Y5Cl19,4.269299999999999
mp-770674,Li9V12Fe7O48,0.0
mp-770783,Fe7P12WO48,0.0
mp-773282,LiMn3(FeO4)2,0.057399999999999896
mp-774401,CoSbO4,0.0
mp-777623,Na4Mn2C4SO16,0.23270000000000002
mp-778730,LiMn2(PO4)2,0.0
mp-778765,Mn7Sn(PO4)12,0.0014000000000000679
mp-778905,Ti17(NO4)6,0.15939999999999976
mp-778978,Ti17(NO4)6,0.11149999999999949
mp-779107,Ti17(NO4)6,0.13239999999999963
mp-779367,Li3MnV(PO4)3,0.44619999999999993
mp-779464,Ti17(NO4)6,0.11439999999999984
mp-779838,Na7(FeO4)2,0.0
mp-780484,Li5Mn2(PO4)3,3.8164999999999996
mp-8432,CaCuP,0.0
mp-8475,ErCoC,0.0
mp-849079,NiS2,0.0
mp-849505,MnFe2(PO4)3,0.0
mp-853269,Li5Fe4(P2O7)4,1.3356000000000001
mp-853272,Li2Mn3(BO3)3,0.0
mp-867264,Re3Os,0.0
mp-867542,Ba8(Bi2O7)3,0.0
mp-9027,TiS2,0.0
mp-937760,C,0.0
mp-972093,Tm(Mg4Al3)4,0.0
mp-972296,ZrOsO3,0.0
mp-972352,YbMg,0.0
mp-972353,U3Pa,0.0
mp-972367,UAlO3,0.0
mp-972395,TmBeO3,0.0
mp-972422,U3Ge,0.0
mp-972442,SnBO3,0.0
mp-972495,USn,0.0
mp-972502,Sm3Dy,0.0
mp-972529,SmP3,0.0
mp-972539,Sm3Er,0.0
mp-972664,SmTh,0.0
mp-972692,SnPb,0.0
mp-972742,SmBr,0.0
mp-974060,LiDy3,0.0
mp-974061,KSiO3,0.0
mp-974066,Nd3Sm,0.0
mp-974108,NiPbO3,0.0
mp-974335,RuRh3,0.0
mp-974336,HoO,0.0
mp-974337,RuPbO3,0.0
mp-974370,PtRh3,0.0
mp-974395,Pt3Rh,0.0
mp-974416,Re3W,0.0
mp-974421,IrRu,0.0
mp-974430,Re3Ir,0.0
mp-974457,Ru3I,0.0
mp-974505,ReTeO3,0.0
mp-974511,ReSbO3,0.0
mp-974617,Hg3Pd,0.0
mp-974734,KInO3,0.0
mp-974740,NdBiO3,0.0
mp-975834,MoRu3,0.0
mp-976025,Li3Ga,0.0
mp-976254,Li3Mg,0.0
mp-976258,EuPtO3,0.0
mp-976283,LiYO3,0.0
mp-976292,NaCu,0.0
mp-976319,NaHo3,0.0
mp-976331,LiLuO3,0.0
mp-976358,Nd3Al,0.0
mp-976404,NaF3,0.0
mp-976411,Li,0.0
mp-976420,Nd3Ho,0.0
mp-976424,LiLa3,0.0
mp-976589,NaIn3,0.0
mp-976599,LiHg3,0.0
mp-976722,MgPbO3,0.0
mp-976725,Hf3Au,0.0
mp-976727,PrBiO3,0.0
mp-976772,NiAg3,0.0
mp-976775,NaMgO3,0.0
mp-976784,NiAu3,0.0
mp-976799,Ni3Bi,0.0
mp-976809,Ni3S,0.0
mp-976830,Ni3Pb,0.0
mp-978928,SnCl,0.0
mp-979265,Ta2CN3,0.0
mp-983,RhSe2,0.0
mp-997548,LiFe2(PO4)3,0.0
mp-997581,H6C6NO,2.2348999999999997
mp-998159,TlFeF3,0.0
mp-998160,TlCoF3,0.0
mp-998173,RbPdCl3,0.0
mp-998227,KHfO3,0.0
mp-998322,CsInF3,0.0
mp-998365,NiAgF3,1.9403000000000001
mp-998414,CuAgF3,0.0
mp-999441,Nb3Cr,0.0
mvc-11317,MgCo2S5,0.0
mvc-15157,Y8Cu3(SiSe7)3,0.0
mvc-15165,Y7Cu3(SiSe7)3,0.0
mvc-15166,Y8Cu3(GeSe7)3,0.0
mvc-15167,Y7Cu3(GeSe7)3,0.0
mvc-15194,Y4Be6Fe3(SiO5)6,0.0
mvc-4394,Ca3V2(GeO4)3,0.0
mp-1002206,SiC,0.0
mp-1005850,Yb3U,0.0
mp-1008226,CrFe2Sn,0.0
mp-1008490,BiI3,0.0
mp-1009237,NdN,0.0
mp-1010136,Cu,0.0
mp-1013563,Ba3BiAs,0.0
mp-1013707,Ba3PN,0.0
mp-1013708,Ba3SbN,0.0
mp-1013735,Ca3Bi2,0.0
mp-1014013,P,0.8832
mp-1017985,TiAg,0.0
mp-1018013,Ti2InNi,0.0
mp-1018059,GaSb,0.05870000000000042
mp-1018085,CoSnRh2,0.0
mp-1018090,CaGaSiH,0.26280000000000037
mp-1018121,TiPd2,0.0
mp-1018153,HfAu2,0.0
mp-1018785,LiFeAs,0.0
mp-1019086,CN2,4.6339999999999995
mp-1021660,NbInRu,0.0
mp-1021667,IClO3,0.0
mp-10228,NbSe2,0.0
mp-1024996,MnCoSn,0.0
mp-10322,BaHfN2,1.2537000000000003
mp-10340,Na2GeTeO6,2.6512000000000002
mp-1038902,Ce3Mg,0.0
mp-1039073,Mg3Bi,0.0
mp-1039117,CaMg3,0.0
mp-1039124,MgCd,0.0
mp-1039142,Ca3Mg,0.0
mp-1039147,CaZn,0.0
mp-1039305,MgBi,0.0
mp-1039355,CeMg2,0.0
mp-1039495,Mg2Cd,0.0
mp-1039574,CeMg,0.0
mp-1039765,CeMg,0.0
mp-1043839,LaMg(FeO3)2,0.0
mp-1047595,Ba2Mg3Mn4Tl2O12,0.0
mp-1048346,Ba2AlV3O7,0.0
mp-10608,Y3SnC,0.0
mp-1066388,K3Re,0.0
mp-1072444,UPt5,0.0
mp-1076171,La5Sm3Co7CuO24,0.0
mp-1076218,La3SmV2Cr2O12,0.0
mp-1076323,Rb2Nb2O5,0.0
mp-1077788,BPt2,0.0
mp-1078069,Al2ZnS4,0.0
mp-1078208,Ca(IN3)2,0.0
mp-1078887,Sr2MnNbO6,0.0
mp-1078969,Ba2NbVO6,0.0
mp-1079027,Sr2ZrCoO6,0.0
mp-1079163,Mg7Nb,0.0
mp-1079228,Ga4BiAs3,0.0
mp-1079702,Cr3GaP4,0.0
mp-1080030,BC7,0.0
mp-1084805,YH3,0.0
mp-1093951,NbGaTc2,0.0
mp-1094027,TmTe,0.0
mp-1094184,HfMg3,0.0
mp-1094379,Mg4Ti3,0.0
mp-1094416,MgTi,0.0
mp-1094464,Mg3Zn,0.0
mp-1094467,Mg3Zr,0.0
mp-1094564,Mg5Sb,0.0
mp-1094578,LiMg,0.0
mp-1094992,MgGa,0.0
mp-1095485,BaGe(PO4)2,4.167000000000001
mp-1096005,Ti2MnZn,0.0
mp-1099218,CsMg14BO16,0.0
mp-1099261,CsMg6GaO8,0.0
mp-1099339,NaMg6W,0.0
mp-1099746,La7SmTi2V6O24,0.0
mp-1100332,Ca2SnS4,0.39800000000000013
mp-1102859,Pr3(MnSn)4,0.0
mp-1104542,Cu(RhO2)2,0.0
mp-1104718,NdMgNi4H7,0.0
mp-1111692,K3TiF6,0.0
mp-1113035,Cs2KPrI6,3.2580999999999998
mp-1113503,Na3NdCl6,3.7876000000000003
mp-1113840,Na2LiLaCl6,3.8124000000000002
mp-1120745,NaTiF4,0.020000000000000018
mp-1120805,H12PbC2(I3N)2,0.21030000000000001
mp-11299,Cd2Hg,0.0
mp-11798,Fe3Pt,0.0
mp-1181832,CoSI,0.0
mp-1183154,AlPbO3,0.0
mp-1183413,BeHgO3,0.0
mp-1183604,CaEu3,0.0
mp-1183719,CrRhO3,0.0
mp-1183834,CeHo3,0.0
mp-1183875,CePr3,0.0
mp-1183969,Cu3Sb,0.0
mp-1184833,HoRhO3,0.0
mp-1185257,LiY3,0.0
mp-1185387,LiNdO3,0.0
mp-1185490,LuPdO3,0.0
mp-1185851,MgC,0.0
mp-1186199,NaYbO3,0.0
mp-1186446,PbC,0.0
mp-1186734,Pr3Y,0.0
mp-1186742,PrBeO3,0.0
mp-1186757,SrZnO3,0.0
mp-1186888,RbPuO3,0.0
mp-1187102,Sr3Ag,0.0
mp-1187183,SrLiO3,0.0
mp-1187224,SrCe3,0.0
mp-1187479,YbTaO3,0.0
mp-1187480,YbPtO3,0.0
mp-1191382,Sr3CoRuO6,0.0
mp-11944,LiYbGe2,0.0
mp-1196210,NaAg(SO2)2,0.22710000000000002
mp-12020,ErAl4Ge2Au,0.0
mp-1206135,Hf6FeSb2,0.0
mp-1206685,NdNiAs,0.0
mp-1206874,CoH,0.0
mp-1216312,VOs,0.0
mp-1217756,Ta,0.0
mp-1218033,Ta3MoS8,0.0
mp-1219457,SbAs,0.0
mp-1219904,Pr3DyFe34,0.0
mp-1220321,NbPt2,0.0
mp-1221543,MnZn,0.0
mp-1222976,LaTaBi2O7,2.1126999999999994
mp-1225701,CuPd,0.0
mp-12459,Ag3PS4,0.9914000000000001
mp-12581,CdTe,0.0
mp-12631,SrTcO3,0.0
mp-12644,Ba2LuNbO6,2.8478999999999997
mp-13643,Er2Ge2O7,3.7278999999999995
mp-13933,Ba2HoReO6,0.0
mp-14708,Tm2Ge2O7,3.7188000000000003
mp-15226,CrWN2,0.0
mp-15669,Ti3Te4,0.0
mp-15812,Mn3Mo3C,0.0
mp-1775,SnAu,0.0
mp-18262,HoAgS2,1.7807999999999997
mp-1828,ThOs2,0.0
mp-19280,NaCr3O8,1.7910000000000001
mp-19391,NaVO2,1.7715000000000005
mp-19718,CeInAu,0.0
mp-2002,Cu3Sb,0.0
mp-20157,BaGdCuSe3,1.0211999999999999
mp-20237,CoNiSn,0.0
mp-20372,Ce,0.0
mp-20482,EuAgP,0.0
mp-20908,Ce(BC)2,0.0
mp-21098,UPb,0.0
mp-21309,MgTe(PbO3)2,2.2615999999999996
mp-21587,Mg6Ni16As7,0.0
mp-21859,CuAs2,0.0
mp-22556,Tm3TlC,0.0
mp-23679,PuH3,0.0
mp-2447,P4Se5,1.8240999999999998
mp-24585,LiZnPH2O5,4.024900000000001
mp-24669,CrH,0.0
mp-24841,CoTe(PbO3)2,0.0
mp-2537,NdS2,0.0
mp-25378,CuO2,0.0
mp-27917,Ca3SiO5,3.6959999999999997
mp-3055,NdB2Rh3,0.0
mp-30763,LiPd2Pb,0.0
mp-30807,ZrNi4Sn,0.0
mp-34023,Ba2NbO,0.0
mp-3504,NbNi2Sn,0.0
mp-35730,BaUO3,0.0
mp-3676,MgCu4Sn,0.0
mp-3702,FeCuPt2,0.0
mp-400,NdAl2,0.0
mp-464,HoSe,0.0
mp-477,SmGa2,0.0
mp-4813,NbAlNi2,0.0
mp-504775,La6P17Pd6,0.0
mp-510657,VCu3O4,0.10090000000000021
mp-510757,Fe(Se2O5)2,0.0
mp-514,HfZn2,0.0
mp-5151,Cd4GeS6,1.353
mp-519,USb,0.0
mp-5251,Ca4CN4,1.7906999999999997
mp-535,Fe4N,0.0
mp-543040,Ga2Te3(HO2)6,3.7626999999999997
mp-543072,Co(CO)4,0.0
mp-550433,BeZnO2,2.6553999999999998
mp-556095,Dy3S4,0.0
mp-556319,SiO2,5.198
mp-558521,B2Se2O7,3.9417999999999997
mp-561659,MnF4,1.3254000000000001
mp-566538,Eu3Fe5O12,0.0
mp-567767,CoCN2,0.0
mp-567772,Na,0.0
mp-568182,Ce(CoAs)2,0.0
mp-568354,DyGa2Cu3,0.0
mp-568466,LiInSn,0.0
mp-569518,U2Zn17,0.0
mp-570113,BiAu2,0.0
mp-570971,Sr3Ga3N5,1.3625000000000003
mp-582,CeIr2,0.0
mp-585960,Gd3Fe5O12,0.0
mp-590,NiAs,0.0
mp-612918,Dy3Ge4,0.0
mp-614006,B2O,0.0
mp-622990,GaFe2Ni,0.0
mp-6286,YbNi2B2C,0.0
mp-631548,Tl2SiNi,0.0
mp-632,TmCo2,0.0
mp-644223,LiBH4,6.685499999999999
mp-662,NiSe,0.0
mp-672374,UNi2Sn,0.0
mp-673126,LiSb(PO3)4,4.319999999999999
mp-673165,Dy2O3,0.0
mp-675180,ErCuSe2,1.0495999999999999
mp-675248,Sr4Bi14O25,0.0
mp-675690,Ba2PtAu,0.0
mp-7000,SiO2,5.719
mp-7114,Ho3SnC,0.0
mp-733,GeO2,3.2500999999999998
mp-7543,LiVS2,0.0
mp-754545,NdO,0.0
mp-754739,CaBe3O4,3.9114999999999998
mp-756,TbAl2,0.0
mp-7576,CrSi,0.0
mp-758604,LiAgF2,1.3843999999999999
mp-761436,Li7Ni5O12,0.0
mp-764648,LiTiO2,0.0
mp-765437,NbCrO4,1.9782000000000002
mp-765694,Li3Co(NiO3)2,0.0
mp-765747,Li4TiCr3O8,0.0
mp-766113,LiV(TeO4)3,1.4647000000000001
mp-772215,LiNb8O10,0.0
mp-772251,Li3Mn4NiO8,0.0
mp-772730,Li2Mn3VO8,0.0
mp-7790,Ti2N,0.0
mp-784630,Ni2Mo,0.0
mp-7914,NaScO2,3.9799999999999995
mp-7931,SrP,0.45940000000000003
mp-833,CaPd2,0.0
mp-861876,LiAc2Si,0.0
mp-861929,Pu2BiAu,0.0
mp-861976,PaGaFe2,0.0
mp-861992,PaNi2Sb,0.0
mp-862335,LiAsRh2,0.0
mp-862363,Sc2PdPt,0.0
mp-862695,Al2CoRu,0.0
mp-862734,Pm2ZnSn,0.0
mp-862840,Pr11In9Ni4,0.0
mp-862849,Ac2NiIr,0.0
mp-862873,AcAgHg2,0.0
mp-862882,CaPmAu2,0.0
mp-862984,PmB3,0.0
mp-8632,V,0.0
mp-863728,Ho4Ni13C4,0.0
mp-864601,LiMg2Rh,0.0
mp-864608,NpGaRh2,0.0
mp-864623,ZnCuAu2,0.0
mp-864715,HfInCo2,0.0
mp-864927,Hf2ReOs,0.0
mp-864949,MnGaRh2,0.0
mp-864968,MnInRh2,0.0
mp-865013,EuAgAu2,0.0
mp-865160,MgGeIr2,0.0
mp-865406,Lu2ZnAu,0.0
mp-865409,UTc2Sn,0.0
mp-865441,TiAlPd2,0.0
mp-865442,TiAlOs2,0.0
mp-865513,YSbPd2,0.0
mp-865622,Li2HoIn,0.0
mp-865648,Yb2CdPb,0.0
mp-865696,HoGaRh2,0.0
mp-865836,YbPaRh2,0.0
mp-865843,YbNdZn2,0.0
mp-866225,AcMgHg2,0.0
mp-867326,Al2RuRh,0.0
mp-867802,Sc2CuOs,0.0
mp-867927,LiVIr2,0.0
mp-8973,NaSi2N3,4.1842999999999995
mp-9203,Al6Cd4SO12,2.7127999999999997
mp-921,YRh2,0.0
mp-972415,YErAl2,0.0
mp-973778,Hg3F,0.0
mp-973986,Ho,0.0
mp-974816,Rb3Sm,0.0
mp-974990,Rb3Hg,0.0
mp-975073,NdAu3,0.0
mp-975519,Rb,0.0
mp-977381,GdMgNi4,0.0
mp-978953,SrAcTl2,0.0
mp-980055,YErMg2,0.0
mp-980191,BaSrYb2,0.0
mp-980193,Ti2H4Pd,0.0
mp-983446,Rb3Pm,0.0
mp-985825,Al3Cu,0.0
mp-9950,BaLiSi,0.0
mp-995393,LiS4,2.1584999999999996
mp-997030,CaAgO2,0.0
mp-999076,Ti2InNi,0.0
mp-999133,TaPd,0.0
mp-999357,NbN,0.0
mp-999454,NaVS2,0.0
mvc-13747,Zn(CoN)2,0.0
mvc-15387,WN,0.0
mvc-15971,BiO2,0.0
mp-1003316,KMn4O8,0.0
mp-1003317,Mn3HO6,0.0
mp-1003322,CaMnO2,1.9756999999999998
mp-1011031,PrBi,0.0
mp-1011260,EuFeO3,0.0
mp-1013524,Ca3N2,0.011600000000000055
mp-1013525,VS2,0.0
mp-1013526,VS2,0.0
mp-1013710,Ba3BiN,0.0
mp-1016144,MgMn3O6,0.0
mp-1016145,CaMn3O6,0.0
mp-1018661,CePbAu,0.0
mp-1018662,CeSbPd,0.0
mp-1018663,CeS2,0.0
mp-1018664,CeO2,1.9544000000000001
mp-1018665,CeSe2,0.0
mp-1018666,CeSi2Mo2C,0.0
mp-1018667,CeTeCl,0.0
mp-1018668,CeTlCd,0.0
mp-1018671,CeZnGa,0.0
mp-1018672,CoAs2,0.0
mp-1018674,DyAlZn,0.0
mp-1018676,CeSbAu,0.0
mp-1018677,DyScSb,0.0
mp-1018679,DyTe2,0.0
mp-1018680,DyTlZn,0.0
mp-1018681,DyZnIn,0.0
mp-1018683,DySe2,0.0
mp-1018685,ErCuSn,0.0
mp-1018686,ErH2,0.0
mp-1018687,ErS2,0.0
mp-1018688,ErTlZn,0.0
mp-1018689,ErZnIn,0.0
mp-1018692,ErTe2,0.0
mp-1018694,ErZnGa,0.0
mp-1018695,EuBiAu,0.0
mp-1018696,EuCdPb,0.0
mp-1018697,EuCdSn,0.0
mp-1018698,EuHgPb,0.0
mp-1018700,EuO2,0.0
mp-1018701,EuSnHg,0.0
mp-1018702,EuZnGe,0.0
mp-1018703,EuZnGe,0.0
mp-1018704,GdAlZn,0.0
mp-1018706,GdS2,0.0
mp-1018708,GdTlZn,0.0
mp-1018709,Hf2GaSb3,0.0
mp-1018712,HfGa4Co,0.0
mp-1018717,HfSb2,0.0
mp-1018719,HfTaNO3,1.8978000000000002
mp-1018721,HfO2,4.668200000000001
mp-1018724,HoCuSn,0.0
mp-1018725,HoFeSi,0.0
mp-1018726,HfVGe,0.0
mp-1018727,HoS2,0.0
mp-1018728,HoSe2,0.0
mp-1018729,HoZnIn,0.0
mp-1018730,In2Cu,0.0
mp-1018731,HoSI,2.7207999999999997
mp-1018732,HoTe2,0.0
mp-1018733,IrN2,0.0
mp-1018734,IrN,0.0
mp-1018735,BaTi2As2O,0.0
mp-1018738,LaAl2BRu2,0.0
mp-1018740,LaCoSi,0.0
mp-1018741,LaCuPb,0.0
mp-1018742,LaNi2Rh3,0.0
mp-1018743,LaNi3Rh2,0.0
mp-1018744,LaPbAu,0.0
mp-1018745,LaSbPd,0.0
mp-1018746,LaGe2Ir3,0.0
mp-1018747,LaSbTe,0.0
mp-1018753,LaTlCd,0.0
mp-1018755,LaTlZn,0.0
mp-1018757,LaZnGa,0.0
mp-1018758,LaZnIn,0.0
mp-1018761,Li3CeSb2,0.0
mp-1018762,Li3CeBi2,0.0
mp-1018763,Li3DySb2,0.0
mp-1018764,Li3HoSb2,0.0
mp-1018769,Li3NdSb2,0.0
mp-1018770,Li3PrBi2,0.0
mp-1018779,Li3PrSb2,0.0
mp-1018780,Li3SmBi2,0.0
mp-1018781,Li3SmSb2,0.0
mp-1018782,Li3YBi2,0.0
mp-1018783,LiBeB,0.0
mp-1018784,LiCe(CuP)2,0.0
mp-1018786,LiMnSb,0.0
mp-1018789,LiO2,0.0
mp-1018791,LiY(CuP)2,0.0
mp-1019547,BaLi2Mg(PO4)2,5.638199999999999
mp-1019551,BaNa2Mg(PO4)2,4.869199999999999
mp-1019558,BaSr2Mg(SiO4)2,4.759
mp-1019561,Ca2GeO4,3.5549999999999997
mp-1023930,MoW(SeS)2,0.47550000000000014
mp-1023931,TeWS,0.0
mp-1023932,Te2MoWS2,0.0
mp-1023948,TeMoSe,0.46730000000000005
mp-1023955,MoW(SeS)2,0.9853999999999999
mp-1023959,TeMoS,0.0
mp-1023963,Te2MoWS2,0.0
mp-1025572,WSe2,1.2288999999999999
mp-1025578,Te2W3(SeS)2,0.0
mp-1025583,Te2Mo(WSe2)2,0.0
mp-1025586,Te2W3S4,0.0
mp-1025587,Te4W3S2,0.0
mp-1025599,W3(Se2S)2,0.9081999999999999
mp-1025626,Te4Mo2WSe2,0.05750000000000011
mp-1025637,Te2W3(SeS)2,0.0
mp-1025648,Te2Mo(WS2)2,0.0
mp-1025654,Te4Mo2WS2,0.0
mp-1025657,Te4Mo2WS2,0.0
mp-1025664,Te4Mo2WSe2,0.35189999999999966
mp-1025668,Te2Mo2WSe4,0.0
mp-1025675,Te4Mo2WSe2,0.39860000000000007
mp-1025690,Te2W3S4,0.0
mp-1025691,Te4Mo(WS)2,0.0
mp-1025692,Te2MoW2(SeS)2,0.0
mp-1025710,Te4Mo(WS)2,0.0
mp-1025715,Te2Mo(WS2)2,0.0
mp-1025722,Te2MoW2(SeS)2,0.0
mp-1025728,Te2Mo3Se4,0.0
mp-1025731,Te2Mo2W(SeS)2,0.0
mp-1025732,Te4Mo(WSe)2,0.34189999999999987
mp-1025733,Te4Mo3Se2,0.43409999999999993
mp-1025747,Te2MoW2(SeS)2,0.0
mp-1025768,Te2MoW2(SeS)2,0.0
mp-1025769,Te4Mo3S2,0.0
mp-1025772,Te2Mo2W(SeS)2,0.0
mp-1025778,Te2Mo2W(SeS)2,0.0
mp-1025810,Te2Mo2W(SeS)2,0.0
mp-1025815,Mo2WSe6,1.0366999999999997
mp-1025834,Te2Mo(WSe2)2,0.020199999999999996
mp-1025836,Te2MoW2(SeS)2,0.41270000000000007
mp-1025851,Te2Mo(WS2)2,0.0
mp-1025853,Te2Mo3(SeS)2,0.0
mp-1025856,Te2MoW2(SeS)2,0.0
mp-1025885,Te2Mo2WSe4,0.0
mp-1025895,Te2MoW2(SeS)2,0.0
mp-1025898,Te2Mo(WS2)2,0.0
mp-1025905,Mo2WSe6,0.9875000000000003
mp-1025921,Te4Mo(WS)2,0.0
mp-1025923,Te2Mo2WS4,0.0
mp-1025924,Te4Mo(WS)2,0.0
mp-1025926,Te2Mo2WS4,0.0
mp-1025927,Te2Mo3(SeS)2,0.0
mp-1025932,Te2Mo2WS4,0.0
mp-1025986,Te2Mo3S4,0.0
mp-1026002,Te2Mo3(SeS)2,0.0
mp-1026016,Te2Mo2W(SeS)2,0.0
mp-1026020,Te2Mo3S4,0.0
mp-1026034,Mo(WS3)2,1.3041000000000003
mp-1026347,Te2W3(SeS)2,0.0
mp-1026349,Te2W3Se4,0.23000000000000043
mp-1026352,Te4Mo(WS)2,0.0
mp-1026362,Te4W3S2,0.0
mp-1026912,Te2MoWSeS,0.23860000000000037
mp-1026917,Te2Mo3W(SeS2)2,0.0
mp-1026918,Te2Mo3W(SeS2)2,0.0
mp-1026929,Te4MoW3(SeS)2,0.0
mp-1026930,Te2MoW3(SeS2)2,0.0
mp-1026931,Te2Mo3W(Se2S)2,0.0
mp-1027550,TeMo2SeS2,0.0
mp-1027567,Te2Mo3WS6,0.0
mp-1027570,Te2Mo3W(SeS2)2,0.0
mp-1027576,TeMo2Se2S,0.0
mp-1027579,TeMo2SeS2,0.0
mp-1027609,TeMoWSeS2,0.0
mp-1027612,Te2Mo3WS6,0.0
mp-1027614,Te2Mo3W(Se2S)2,0.0
mp-1027615,Te2MoWS2,0.0
mp-1027627,TeMo2SeS2,0.0
mp-1027634,TeMoWS3,0.0
mp-1027642,Te3Mo2S,0.0
mp-1027645,Mo3WS8,1.1872000000000003
mp-1027652,TeMoWS3,0.0
mp-1027658,Te2Mo3WSe6,0.0
mp-1027663,Te4Mo3WSe4,0.0
mp-1027682,TeMo2Se3,0.0
mp-1027683,TeMoSe,0.0
mp-1027689,Te2Mo3W(SeS2)2,0.0
mp-1027696,TeMo2S3,0.0
mp-1027700,Te4Mo3WS4,0.0
mp-1027706,Te2Mo3WS6,0.0
mp-1027711,Te2Mo3WSe6,0.0
mp-1027713,TeMoWSe2S,0.0
mp-1027721,Te2Mo3W(Se2S)2,0.0
mp-1027722,Te2Mo3W(Se2S)2,0.0
mp-1027729,Mo3W(Se3S)2,0.9023000000000003
mp-1027736,Te2MoWSeS,0.0
mp-1027738,TeMoS,0.0
mp-1027740,TeMoWSeS2,0.0
mp-1027742,Te2Mo3W(SeS2)2,0.0
mp-1027759,TeMoWSeS2,0.0
mp-1027760,Te2Mo3W(Se2S)2,0.0
mp-1027761,TeMo2S3,0.0
mp-1027765,TeMo2SeS2,0.0
mp-1027772,Te2Mo3W(SeS2)2,0.0
mp-1027780,Te2Mo3WS6,0.0
mp-1027801,TeMo2Se2S,0.0
mp-1027818,TeMo2Se3,0.0
mp-1027880,Te2Mo3W(SeS2)2,0.0
mp-1027911,Te4Mo3WS4,0.0
mp-1027916,Te2Mo3WS6,0.0
mp-1027931,Te6Mo3WS2,0.0
mp-1027980,Te2Mo3W(SeS2)2,0.0
mp-1028409,Mo3WSe8,0.9687999999999999
mp-1028414,MoWSe4,0.9440999999999997
mp-1028416,TeMoWSe2S,0.0
mp-1028419,Te2Mo3WSe6,0.0
mp-1028420,Mo3WSe8,0.923
mp-1028434,TeMoWSe3,0.0
mp-1028439,TeMoWSe2S,0.0
mp-1028441,WS2,1.6559000000000001
mp-1028445,Te2W2SeS,0.0
mp-1028452,Te3W2Se,0.30960000000000054
mp-1028463,Te2MoW3(Se2S)2,0.0
mp-1028468,TeW2SeS2,0.0
mp-1028471,Te2MoWSeS,0.0017999999999998018
mp-1028490,Te2MoW3(SeS2)2,0.0
mp-1028492,TeW2S3,0.0
mp-1028505,Te2Mo3WSe6,0.0
mp-1028512,TeW2S3,0.0
mp-1028514,MoWSe4,0.9424999999999999
mp-1028517,Te2MoW3(Se2S)2,0.0
mp-1028520,Te4MoW3S4,0.0
mp-1028525,Te2MoW3(Se2S)2,0.0
mp-1028526,TeWS,0.0
mp-1028528,TeMoWSe2S,0.0
mp-1028531,TeMoWSe3,0.0
mp-1028535,Te2MoW3(SeS2)2,0.0
mp-1028542,TeW2SeS2,0.0
mp-1028544,TeMoWSe3,0.0
mp-1028570,Te2MoW3(Se2S)2,0.0
mp-1028590,Te2W2SeS,0.0
mp-1029420,RbCoN,0.0
mp-1029421,Te2Mo(WSe2)3,0.0
mp-1029444,KCoN,0.0
mp-1029448,Li5OsN4,0.0
mp-1029458,Zn2CrN3,0.0
mp-1029466,NaNiN,0.0
mp-1029491,CsCoN,0.0
mp-1029492,Li3CoN2,0.0
mp-1029520,Mg2CrN3,0.0
mp-1029531,Sr3ReN3,0.0
mp-1029532,Ca2CoN2,0.0
mp-1030722,Te2Mo3WSe6,0.0
mp-1030723,Te2Mo3W(SeS2)2,0.0
mp-1030739,Te2MoWSe2,0.0
mp-1030750,Te2Mo3W(Se2S)2,0.0
mp-1030753,Te4Mo3W(SeS)2,0.0
mp-1030775,Te2Mo2SeS,0.0
mp-1030784,TeMoWSe3,0.0
mp-1030794,RbNaMg6O7,0.0
mp-1030827,Te2Mo3W(Se2S)2,0.0
mp-1030961,Te2Mo3W(SeS2)2,0.0
mp-1030980,RbNaMg6O7,0.0
mp-1031039,KHfMg6O7,0.0
mp-1031091,RbLiMg6O7,0.0
mp-1033646,RbHfMg6O7,0.0
mp-1033679,RbHfMg6O7,0.0
mp-1033689,RbMg6BO7,0.0
mp-1033715,CsHfMg6O7,0.0
mp-1047695,Mg(AgO2)2,0.49270000000000014
mp-1183105,Ac3Ce,0.0
mp-1183152,AcScO3,3.380000000000001
mp-1183168,AcVO3,0.0
mp-1183446,Bi3Au,0.0
mp-1183623,CdCu3,0.0
mp-1183640,CdHgPd2,0.0
mp-1183684,Co3Se,0.0
mp-1183700,Cr3As,0.0
mp-1183840,Ce3Er,0.0
mp-1183975,GaGe3,0.0
mp-1183997,CsThO3,0.0
mp-1184028,Cu3Rh,0.0
mp-1184033,GaFeO3,0.0
mp-1184068,Dy3Bi,0.0
mp-1184093,DyTh3,0.0
mp-1184214,Ga3Se,0.0
mp-1184304,EuInO3,0.0
mp-1184359,EuHgO3,0.0
mp-1184478,In,0.0
mp-1184583,Ho2AlRu,0.0
mp-1184675,HfH3,0.0
mp-1185308,LiDyO3,0.0
mp-1185414,LiSiO3,0.0
mp-1185941,MgReO3,0.0
mp-1185971,MgTi3,0.0
mp-1186262,Nd3Dy,0.0
mp-1186540,Pm3Sm,0.0
mp-1186551,PmEr3,0.0
mp-1186709,MnGe3,0.0
mp-1186948,SbPbO3,0.0
mp-1187192,SrSbO3,0.0
mp-1187266,Tb3Au,0.0
mp-1187305,Tb3Sc,0.0
mp-1187314,Tb3Y,0.0
mp-1187466,Ti3Cd,0.0
mp-1187570,YbPdO3,0.0
mp-1187672,Tm3Tl,0.0
mp-1187783,UTcO3,0.0
mp-1187953,Yb3Pb,0.0
mp-1188007,Zr3N,0.0
mp-1206753,AlFe3O,0.0
mp-1206794,LiAu,0.0
mp-1206953,ErBiPd,0.0
mp-1206989,TbBiPt,0.48080000000000034
mp-1208559,TaH4,0.0
mp-1212609,GaPd,0.0
mp-1212637,GaFe3N,0.0
mp-1215258,ZrBeB,0.0
mp-1215471,Zr2HC,0.0
mp-1215900,YHo,0.0
mp-1216314,VNi3,0.0
mp-1216453,V6SiGe,0.0
mp-1216531,TmAlGa,0.0
mp-1217890,TaSeS,0.0
mp-1217892,TaNb,0.0
mp-1217908,TaRu,0.0
mp-1219722,PrNiSb,0.0
mp-1221642,MnAl2Co,0.0
mp-1221656,MnAl2Ni,0.0
mp-1222026,Mn2GaNi,0.0
mp-1222252,LuZr,0.0
mp-1223788,HoAlGa,0.0
mp-1224349,Ge,0.0
mp-1225494,ErCuSi,0.0
mp-1226533,CeY,0.0
mp-1226728,CdAg,0.0
mp-1228804,AlVFe2,0.0
mp-1228806,AlSb,0.0
mp-1228822,AlV6Sn,0.0
mp-1238830,TiCrCuS4,0.0
mp-1238845,Cs(CrS2)2,0.0
mp-1239078,HoBi2C,0.0
mp-571491,HoB6,0.0
mp-1003771,MgMn6O12,0.34750000000000014
mp-1005689,Sm6GaCo2,0.0
mp-1005719,Sm3Np,0.0
mp-1005727,TmNp3,0.0
mp-1005792,Sm2CuAs3O,0.0
mp-1005831,Tb2Co3Ge5,0.0
mp-1006115,Ho3Pu,0.0
mp-1006226,ZnBi,0.0
mp-1006245,ErNp3,0.0
mp-1006246,CeSm3,0.0
mp-1006330,Ce3Cu,0.0
mp-1006352,Er2Co3Ge5,0.0
mp-1006371,CePS,0.0
mp-1006372,AgSO4,0.0
mp-1008501,Be,0.0
mp-1013719,Ba3BiSb,0.0
mp-1013726,Cd4SF6,1.8553000000000002
mp-1013939,TiSF,0.0
mp-1014214,C3N,0.0
mp-1014316,C3N,0.0
mp-1014339,CrN2,0.0
mp-1014995,CrN2,0.0
mp-1016227,LaMg3,0.0
mp-1016296,SrMg6Mo,0.0
mp-1016329,SrMg6Nb,0.0
mp-1016330,SrMg6W,0.0
mp-1016559,BaMg6W,0.0
mp-1016639,BaMg6Mo,0.0
mp-1016819,HfZnO3,0.0
mp-1016821,BaSiO3,0.9385000000000003
mp-1016823,BaGeO3,0.0
mp-1016826,MgIrO3,0.0
mp-1016828,CdIrO3,0.0
mp-1016829,MgRuO3,0.0
mp-1016833,CaRhO3,0.0
mp-1016835,CaRuO3,0.0
mp-1016836,ZnOsO3,0.0
mp-1016837,SnHgO3,0.0
mp-1016840,HgOsO3,0.0
mp-1016841,HfHgO3,0.0
mp-1016842,TiHgO3,0.0
mp-1016843,MgOsO3,0.0
mp-1016845,ZrCdO3,0.0
mp-1016846,TiCdO3,0.0
mp-1016848,SrIrO3,0.0
mp-1016849,CdRuO3,0.0
mp-1016850,BaRhO3,0.0
mp-1016851,HgRuO3,0.0
mp-1016852,BaMnO3,0.0
mp-1016853,CaVO3,0.0
mp-1016854,MnCdO3,0.0
mp-1016871,ZrHgO3,0.0
mp-1016872,CaIrO3,0.0
mp-1016873,CaHfO3,3.6643999999999997
mp-1016874,SiHgO3,0.0
mp-1016875,CdRhO3,0.0
mp-1016876,ZnSiO3,0.0
mp-1016880,ZnRhO3,0.0
mp-1016881,CdSnO3,0.0
mp-1016882,CdOsO3,0.0
mp-1016883,ZrZnO3,0.0
mp-1016886,MgVO3,0.0
mp-1016900,CaOsO3,0.0
mp-1016902,ZnSnO3,0.0
mp-1016904,VCdO3,0.0
mp-1016927,TiZnO3,0.0