task_id,composition,band_gap
mp-31426,HoInNi,0.0
mp-1206024,HoInNi4,0.0
mp-4299,HoInPd,0.0
mp-861654,HoInPd2,0.0
mp-1184823,HoInPt2,0.0
mp-1025022,HoInPt4,0.0
mp-11104,HoInRh,0.0
mp-11476,HoIr,0.0
mp-928,HoIr2,0.0
mp-1184930,HoLu3,0.0
mp-973283,HoLuAg2,0.0
mp-1184824,HoLuAl2,0.0
mp-973285,HoLuAu2,0.0
mp-973276,HoLuCd2,0.0
mp-1184891,HoLuCu2,0.0
mp-1184869,HoLuHg2,0.0
mp-1184838,HoLuIn2,0.0
mp-1184847,HoLuIr2,0.0
mp-864799,HoLuMg2,0.0
mp-1184836,HoLuPd2,0.0
mp-976155,HoLuRh2,0.0
mp-973114,HoLuRu2,0.0
mp-973069,HoLuTl2,0.0
mp-973333,HoLuZn2,0.0
mp-1199,HoMg,0.0
mp-1049207,HoMg(BiO3)2,0.0
mp-1041115,HoMg(CoO3)2,0.0
mp-1041092,HoMg(FeO3)2,0.0
mp-1041116,HoMg(NiO3)2,0.0
mp-1049228,HoMg(SbO3)2,0.0
mp-1049287,HoMg(SnO3)2,0.0
mp-1041135,HoMg(WO3)2,1.9252
mp-1184837,HoMg2Sc,0.0
mp-866172,HoMg3,0.0
mp-1184866,HoMg5,0.0
mp-1205940,HoMgAg,0.0
mp-1184818,HoMgAg2,0.0
mp-1184816,HoMgCd2,0.0
mp-1205995,HoMgGa,0.0
mp-977369,HoMgHg2,0.0
mp-20538,HoMgIn,0.0
mp-1041080,HoMgMn2O6,0.0
mp-1205936,HoMgPd,0.0
mp-864744,HoMgRh2,0.0
mp-1232139,HoMgS3,0.0
mp-1232140,HoMgSe3,0.0
mp-977388,HoMgSn,0.0
mp-1044908,HoMgTi2O6,0.0
mp-1205788,HoMgTl,0.0
mp-864747,HoMgTl2,0.0
mp-2769,HoMn2,0.0
mp-1147652,HoMn2O4,0.0
mp-1205720,HoMn2SiC,0.0
mp-1041113,HoMn2ZnO6,0.0
mp-641065,HoMn4(CuO4)3,0.0
mp-1223751,HoMnAl,0.0
mp-978098,HoMnB4,0.0
mp-1195405,HoMnCu4P3,0.0
mp-1223745,HoMnFe,0.0
mp-11860,HoMnGa,0.0
mp-1223794,HoMnIn,0.0
mp-19056,HoMnO3,0.0
mp-20380,HoMnSi,0.0
mp-1200228,HoMnSn2,0.0
mp-1188132,HoMoC2,0.0
mp-1212177,HoMoO5,0.0
mp-866109,HoNbOs2,0.0
mp-866112,HoNbRu2,0.0
mp-11871,HoNi,0.0
mp-673,HoNi2,0.0
mp-6646,HoNi2B2C,0.0
mp-1077340,HoNi4Au,0.0
mp-10398,HoNi4B,0.0
mp-1553,HoNi5,0.0
mp-1212066,HoNiAs,0.0
mp-1192149,HoNiB4,0.0
mp-5154,HoNiC2,0.0
mp-974399,HoNiGe2,0.0
mp-1079921,HoNiGe3,0.0
mp-18974,HoNiO3,0.0
mp-1092222,HoNiSb2,0.0
mp-1079003,HoNiSn,0.0
mp-1199966,HoNiSn2,0.0
mp-1212090,HoNiSn4,0.0
mp-1184931,HoNp3,0.0
mp-1184909,HoNpRu2,0.0
mp-974336,HoO,0.0
mp-1206243,HoO2,0.0
mp-1101953,HoOs2,0.0
mp-1184920,HoOs3,0.0
mp-744,HoP,0.0
mp-12237,HoP5O14,5.233099999999999
mp-1205704,HoPRu2C,0.0
mp-977364,HoPaOs2,0.0
mp-1184890,HoPaRu2,0.0
mp-1184843,HoPaTc2,0.0
mp-1386,HoPb3,0.0
mp-30389,HoPbAu,0.0
mp-1087502,HoPd,0.0
mp-1062597,HoPd2,0.0
mp-1206634,HoPd2Pb,0.0
mp-1979,HoPd3,0.0
mp-1189603,HoPd3S4,0.0
mp-1079180,HoPt,0.0
mp-2579,HoPt2,0.0
mp-195,HoPt3,0.0
mp-1185228,HoPu3,0.0
mp-1184889,HoPuOs2,0.0
mp-1102328,HoRe2,0.0
mp-1205545,HoRe2SiC,0.0
mp-975064,HoReB4,0.0
mp-2163,HoRh,0.0
mp-546,HoRh2,0.0
mp-1184821,HoRh2Pb,0.0
mp-22664,HoRh3C,0.0
mp-1206820,HoRu3C,0.0
mp-1240,HoS,0.0
mp-1018727,HoS2,0.0
mp-2050,HoSb,0.0
mp-976679,HoSb3,0.0
mp-1212101,HoSbIr,0.0
mp-1207180,HoSbO3,0.0
mp-977574,HoSbPd2,0.0
mp-1212118,HoSbRh,0.0
mp-864660,HoSbRh2,0.0
mp-1223895,HoSc(BRh)8,0.0
mp-1184820,HoScAl2,0.0
mp-974063,HoScRu2,0.0
mp-1184865,HoScZn2,0.0
mp-464,HoSe,0.0
mp-1018728,HoSe2,0.0
mp-1077147,HoSi2,0.0
mp-5150,HoSi2Ni,0.0
mp-571071,HoSi2Rh3,0.0
mp-1188513,HoSi3,0.0
mp-1069461,HoSi3Ir,0.0
mp-21793,HoSi3Rh5,0.0
mp-22222,HoSiIr,0.0
mp-1071731,HoSiNi4,0.0
mp-1184813,HoSiO3,0.0
mp-1205519,HoSiOs2C,0.0
mp-1105686,HoSiPd2,0.0
mp-1102935,HoSiPt,0.0
mp-1190095,HoSiPt2,0.0
mp-22497,HoSiRu,0.0
mp-570102,HoSiRu2C,0.0
mp-1072865,HoSn2,0.0
mp-11477,HoSn3,0.0
mp-1184832,HoSnAu2,0.0
mp-1077485,HoSnGe,0.0
mp-1079423,HoSnIr,0.0
mp-973977,HoSnO3,0.0
mp-11764,HoSnPd,0.0
mp-30731,HoSnPd2,0.0
mp-30733,HoSnPt,0.0
mp-11971,HoSnRh,0.0
mp-864642,HoSnRh2,0.0
mp-973969,HoTa3,0.0
mp-977354,HoTaOs2,0.0
mp-866116,HoTaRu2,0.0
mp-1101968,HoTc2,0.0
mp-919,HoTe,0.0
mp-1018732,HoTe2,0.0
mp-1078508,HoTe3,0.0
mp-1223797,HoTh,0.0
mp-1184842,HoThOs2,0.0
mp-1184846,HoThRu2,0.0
mp-864626,HoThTc2,0.0
mp-1048839,HoTi2ZnO6,0.0
mp-1224104,HoTiFe11,0.0
mp-1224127,HoTiFe11C,0.0
mp-1223838,HoTiFe11N,0.0
mp-1540,HoTl,0.0
mp-2013,HoTl3,0.0
mp-976590,HoTlRh2,0.0
mp-1007665,HoTlS2,2.3209999999999997
mp-1184899,HoTm3,0.0
mp-1184835,HoTmAg2,0.0
mp-1184827,HoTmAl2,0.0
mp-1184872,HoTmCd2,0.0
mp-976972,HoTmCu2,0.0
mp-1184867,HoTmHg2,0.0
mp-1184828,HoTmIn2,0.0
mp-982388,HoTmMg2,0.0
mp-1184830,HoTmPd2,0.0
mp-1184850,HoTmRh2,0.0
mp-1184831,HoTmRu2,0.0
mp-982724,HoTmTl2,0.0
mp-983126,HoTmZn2,0.0
mp-1206006,HoU2S3O2,0.0
mp-1184908,HoU3,0.0
mp-1224261,HoUTe3,0.0
mp-1223934,HoUTe4,0.0
mp-1224195,HoUTe6,0.0
mp-973524,HoVB4,0.0
mp-1181041,HoWC2,0.0
mp-2249,HoZn,0.0
mp-1049283,HoZn(BiO3)2,0.0
mvc-10230,HoZn(CoO3)2,0.0
mp-1041163,HoZn(FeO3)2,0.0
mp-1041153,HoZn(NiO3)2,0.0
mp-1048854,HoZn(SnO3)2,0.0
mp-1103837,HoZn12,0.0
mp-2041,HoZn2,0.0
mp-30736,HoZn3,0.0
mp-1212073,HoZnGe,0.0
mp-1018729,HoZnIn,0.0
mp-1079329,HoZnPd,0.0
mp-1223786,HoZnSi,0.0
mp-1212106,HoZnSn,0.0
mp-1079397,HoZnSn2,0.0
mp-1184885,HoZr,0.0
mp-1223821,HoZrCo4,0.0
mp-977437,HoZrOs2,0.0
mp-1184822,HoZrRu2,0.0
mp-3346,HoZrSb,0.0
mp-1181085,I(ClO)4,0.0
mp-1080477,I(NO3)2,0.0
mp-1212113,I2N3,0.0
mp-1184879,IBr2,0.0
mp-1021667,IClO3,0.0
mp-1057979,IN,0.0
mp-1097011,IN2,0.0
mp-684692,IN3,0.0
mp-1188721,IN4,0.0
mp-1194097,In(Co11B3)2,0.0
mp-1224696,In(CoSb3)16,0.0
mp-1224652,In(CoSb3)20,0.0
mp-1147679,In(Cu3O4)2,0.0
mp-1147731,In(CuN)3,0.0
mp-24931,In(FeO2)2,0.0
mp-1080559,In(GaAu)2,0.0
mp-1104377,In(Mo3S4)2,0.0
mp-20152,In(MoSe)3,0.0
mp-1224500,In(Ni11B3)2,0.0
mp-1212414,In(PO4)3,0.0
mp-22061,In(TeMo)3,0.0
mp-1224550,In10CuAgS16,0.0
mp-37501,In10Sb9Te,0.0
mp-1224223,In11S16,0.0
mp-1226983,In12Se19N2,0.0
mp-867998,In15SnO24,0.0
mp-1225888,In16Bi8Pb3S38,0.0
mp-1194164,In2(Co7B2)3,0.0
mp-690571,In2(HgTe2)3,0.0
mp-21683,In2(Ni7P2)3,0.0
mp-541450,In2(SO4)3,3.754
mp-1225539,In23Se28,0.0
mp-19974,In2Ag,0.0
mp-1224057,In2Ag3SbSe6,0.0
mp-1025331,In2AgSe4,0.0
mp-1223756,In2AgTe3Br,0.0
mp-1223758,In2AgTe3Cl,0.0
mp-1223837,In2AsP,0.0
mp-1102174,In2AsPt8,0.0
mp-1223793,In2AsSe,0.0
mp-22154,In2Au,0.0
mp-1017579,In2Au3,0.0
mp-23188,In2Bi,0.0
mp-1147770,In2Co(SO)2,0.0
mp-773332,In2Co2O7,0.0
mp-19804,In2Co3S2,0.024000000000000014
mp-21173,In2CoS4,0.0
mp-1104359,In2CoSe4,0.0
mp-1072518,In2Cu,0.0
mp-566150,In2Cu3(PO4)4,0.0
mp-20476,In2CuO4,0.0
mp-1212041,In2CuS4,0.0
mp-1078168,In2CuSe4,0.0
mp-1223859,In2GaAs3,0.0
mp-1095928,In2GaHg,0.0
mp-1224167,In2GaS4,0.0
mp-1093652,In2GaSn,0.0
mp-631527,In2GeB,0.0
mp-1224585,In2Hg8As5Br7,0.0
mp-1096342,In2HgBi,0.0
mp-1097077,In2HgPb,0.0
mp-22812,In2Ir,0.0
mp-1096402,In2IrRh,0.0
mp-1199774,In2Mo15Se19,0.0
mp-20708,In2Ni3S2,0.0
mp-1078086,In2Ni3Se2,0.0
mp-1224072,In2Ni6C,0.0
mp-674493,In2NiS4,0.0
mp-1102524,In2Pd8Se,0.0
mp-510439,In2Pt3,0.0
mp-631547,In2ReB,0.0
mp-1077883,In2Rh3S2,0.0
mp-1207221,In2Sb,0.0
mp-1223844,In2SbAs,0.0
mp-1097125,In2SnHg,0.0
mp-1223808,In2SnPb,0.0
mp-622511,In2Te3,0.0
mp-1224061,In2TeAs,0.0
mp-1193971,In3(Co10B3)2,0.0
mp-1184493,In3Ag,0.0
mp-973466,In3As,0.0
mp-1184506,In3Au,0.0
mp-567550,In3Au7,0.0
mp-1184483,In3B,0.0
mp-1184488,In3Bi,0.0
mp-651005,In3Bi7(Pb2S9)2,0.0
mp-1223965,In3BiTe4,0.0
mp-1184519,In3Cl,0.0
mp-22236,In3Co,0.0
mp-974023,In3Cu,0.0
mp-759544,In3Cu3O8,0.0
mp-1184904,In3Ga,0.0
mp-1120750,In3GaN4,0.0
mp-974310,In3Ge,0.0
mp-1184933,In3Hg,0.0
mp-630976,In3Ir,0.0
mp-1228853,In3Mo15Se19,0.0
mp-1212444,In3NF10,0.0
mp-1184929,In3Ni,0.0
mp-21385,In3Ni2,0.0
mp-1213091,In3Ni7,0.0
mp-1184921,In3Pb,0.0
mp-1185043,In3Pd,0.0
mp-510437,In3Pd2,0.0
mp-1184825,In3Pt,0.0
mp-1069815,In3Pt2,0.0
mp-1224298,In3Pt4,0.0
mp-1224042,In3Pt5,0.0
mp-18614,In3Rh,0.0
mp-607450,In3Ru,0.2078999999999996
mp-1184892,In3S,0.0
mp-556597,In3S4,0.0
mp-1223976,In3SbTe2,0.0
mp-1223951,In3SbTe4,0.0
mp-1184883,In3Se,0.0
mp-1184853,In3Si,0.0
mp-1224025,In3Sn,0.0
mp-1224155,In3SnAu12,0.0
mp-1223891,In3SnAu4,0.0
mp-1224620,In4(Co4C)3,0.0
mp-1224264,In4Ag3(GeSe4)4,0.0
mp-21975,In4Ag9,0.0
mp-685956,In4As3Se,0.0
mp-680545,In4Au9,0.0
mp-1223990,In4Bi,0.0
mp-1106139,In4Bi3Pb,0.0
mp-683917,In4Cu9,0.0
mp-1223890,In4Pb,0.0
mp-1190972,In4Pd17Se4,0.0
mp-685941,In4SbTe3,0.0
mp-1204440,In5(Mo9O14)2,0.0
mp-36751,In5AgS8,0.0
mp-570692,In5B4Ir9,0.0
mp-23180,In5Bi3,0.0
mp-1223977,In5Pt11,0.0
mp-22846,In5S4,0.0
mp-1224137,In5S8,0.0
mp-1188565,In5Sb3,0.0
mp-1212173,In6Ge2IrO8,0.0
mp-646039,In7Cu10,0.0
mp-1212307,In7Ni3,0.0
mp-568655,In7Pd3,0.0
mp-22075,In7Pt3,0.0
mp-675060,In8Cu7Se16,0.0
mp-21827,In9(CuSe4)4,0.0
mp-1224231,In9Ag17,0.0
mp-1188928,In9Cu11,0.0
mp-641509,In9Ni13,0.0
mp-21934,In9Pb4S17,0.0
mp-571060,In9Pt13,0.0
mp-1212832,In9Sn4S17,0.0
mp-1009018,InAg,0.0
mp-1223987,InAg2SbSe4,0.0
mp-1206163,InAg3F6,0.0
mp-1223819,InAg4,0.0
mp-1184870,InAgAu2,0.0
mp-1206578,InAgI2,0.0
mp-1224332,InAs4Pd15,0.0
mp-1184913,InAsO3,0.0
mp-1025293,InAsPd5,0.0
mp-1025212,InAsPt5,0.0
mp-1197888,InAu(I4N)2,0.0
mp-19723,InAuO2,0.0
mp-23313,InBi,0.0
mp-1223901,InBi3,0.0
mp-1224344,InBi3Te4,0.0
mp-1096078,InBiPb2,0.0
mp-1184819,InC,0.0
mp-1064282,InC3,0.0
mp-1196807,InC4Br7N4,0.0
mp-865009,InC6(NCl3)2,0.0
mp-1068786,InCo3N,0.0
mp-769897,InCoO3,0.0
mp-631694,InCoSi2,0.0
mp-1018053,InCu,0.0
mp-12118,InCu2,0.0
mp-1184858,InCu3,0.0
mp-616501,InCu6ClO8,0.0
mp-1095966,InCuNi2,0.0
mp-549158,InCuO2,0.2404000000000001
mp-1224030,InCuO3,0.0
mp-867308,InCuPd2,0.0
mp-639659,InCuPt2,0.0
mp-1096489,InCuRh2,0.0
mp-1212038,InFe(CuSe2)2,0.0
mp-765206,InFe11O16,0.0
mp-22611,InFe2CuSe4,0.0
mp-631472,InFeAs,0.0
mp-617426,InFeBr3,0.0
mp-21211,InFeCo2,0.0
mp-1184829,InFeRh2,0.0
mp-1096249,InGa2Sn,0.0
mp-1184785,InGa3,0.0
mp-1223963,InGa4Sb5,0.0
mp-1223791,InGaAs2,0.0
mp-1224315,InGaCoS4,0.0
mp-1223748,InGaCuO4,0.0
mp-1223638,InGaSb2,0.0
mp-1223671,InGaSe2,0.0
mp-20408,InGaTe2,0.0
mp-1223718,InGe2SbTe5,0.0
mp-1184781,InGe3,0.0
mp-1223647,InGeTe2,0.0
mp-1184767,InH,0.0
mp-863731,InH4NCl4,3.6289999999999996
mp-1093597,InHg2Bi,0.0
mp-1096098,InHg2Pb,0.0
mp-1184789,InHg3,0.0
mp-1095725,InHgPb2,0.0
mp-1223652,InHgTe2,0.0
mp-675332,InI4,0.0
mp-1196400,InIO5,0.0
mp-1223724,InMo12PbS16,0.0
mp-1223939,InMo6(SeS)4,0.0
mp-1087488,InMoS2,0.0
mp-975606,InN3,0.0
mp-19876,InNi,0.0
mp-21092,InNi2,0.0
mp-1184770,InNi2Au,0.0
mp-1223749,InNi2Sn,0.0
mp-22469,InNi3,0.0
mp-1070713,InNi3N,0.0
mp-1184809,InO,0.0
mp-1181272,InO3,0.0
mp-1184799,InOsO3,0.0
mp-698151,InP2H4NO8,0.20840000000000009
mp-631312,InP2Pb,0.0
mp-20050,InP3,0.0
mp-1025161,InPPd5,0.0
mp-1025213,InPPt5,0.0
mp-1223654,InPb,0.0
mp-21215,InPd,0.0
mp-22646,InPd2,0.0
mp-863724,InPd2Au,0.0
mp-1078721,InPd3,0.0
mp-1077979,InPd5Se,0.0
mp-1223755,InPt2,0.0
mp-20516,InPt3,0.0
mp-1184773,InPtO3,0.0
mp-703326,InRe4H8NO20,0.0
mp-631303,InReGe,0.0
mp-899,InRh,0.0
mp-1184791,InRh3,0.0
mp-1077905,InRh3PbS2,0.0
mp-1095082,InRu3,0.0
mp-1147625,InS2,0.0
mp-975512,InSb3,0.0
mp-1184765,InSbO3,0.0
mp-1232036,InSe2,0.0
mp-1078396,InSe2N,0.0
mp-1184751,InSiO3,0.0
mp-1025370,InSiPt5,0.0
mp-1223682,InSn2Te3,0.0
mp-1184776,InSn3,0.0
mp-1223673,InSn3Se4,0.0
mp-1223653,InSn4,0.0
mp-1097505,InSnHg2,0.0
mp-1223695,InSnTe2,0.0
mp-985564,InTc3,0.0
mp-2597,InTe,0.0
mp-1199238,InTe14(IrBr8)2,0.0
mp-1223713,InTe5Pb4,0.0
mp-1205907,Ir(Br3N)2,0.0
mp-1079118,Ir(Br3O)2,0.0
mp-29870,Ir(Cl2F3)2,0.0
mp-1078528,Ir(NCl3)2,0.0
mp-1191519,Ir2Os(NCl)10,0.0
mp-1192759,Ir3(NCl)10,0.0
mp-1184748,Ir3F,0.0
mp-1184761,Ir3Os,0.0
mp-1184777,Ir3Pb,0.0
mp-863709,Ir3Rh,0.0
mp-974358,Ir3Ru,0.0
mp-1101826,Ir3S8,0.0
mp-1184783,Ir3Se,0.0
mp-9888,Ir3Se8,0.0
mp-30745,Ir3W,0.0
mp-1223677,Ir4Os,0.0
mp-1223666,Ir4W,0.0
mp-1001789,IrC,0.0
mp-1191686,IrC2,0.0
mp-1184780,IrC3,0.0
mp-1080042,IrC4,0.0
mp-862845,IrCl2,0.0
mp-1202713,IrClOF6,0.0
mp-13841,IrF4,0.0
mp-1184756,IrI,0.0
mp-1007660,IrN,0.0
mp-1211954,IrN3,0.0
mp-1203882,IrN4Cl3O,0.0
mp-1201368,IrN5Cl3,0.0
mp-2723,IrO2,0.0
mp-1097041,IrO3,0.0
mp-1223655,IrOs,0.0
mp-631480,IrOs2Br,0.0
mp-1223662,IrOsRu,0.0
mp-631311,IrOsW,0.0
mp-631478,IrPbBr,0.0
mp-1223675,IrPd,0.0
mp-1184784,IrPd3,0.0
mp-1223665,IrPt,0.0
mp-1184759,IrPt3,0.0
mp-1223919,IrRh,0.0
mp-1184794,IrRh3,0.0
mp-1212470,IrRhN5Cl7,0.0
mp-974421,IrRu,0.0
mp-1212592,IrRu2(NCl)10,0.0
mp-862620,IrRu3,0.0
mp-1184749,IrSe,0.0
mp-685099,IrSe3,0.0
mp-30744,IrW,0.0
mp-1047152,IrWO6,0.0
mp-1206406,K(AsIr)2,0.0
mp-34232,K(AsRh)2,0.0
mp-1206600,K(AsRu)2,0.0
mp-1147657,K(AuO2)2,0.0
mp-569408,K(CoAs)2,0.0
mp-1206349,K(CoP)2,0.0
mp-12079,K(CoS)2,0.0
mp-4668,K(CoSe)2,0.0
mp-1238839,K(CrS2)2,0.0
mp-8608,K(Cu2As)2,0.0
mp-1078005,K(Cu2Sb)2,0.0
mp-567657,K(CuSe)2,0.0
mp-675576,K(FeAs)2,0.0
mp-1206409,K(FeP)2,0.0
mp-1070151,K(FeS)2,0.0
mp-1212045,K(FeSb3)4,0.0
mp-1070735,K(FeSe)2,0.0
mp-1068789,K(FeTe)2,0.0
mp-1212777,K(GeO2)2,0.0
mp-639900,K(GeSe2)2,0.0
mp-1193630,K(IO3)3,0.024000000000000014
mp-567545,K(In3Au2)2,0.0
mp-21134,K(InAu2)2,0.0
mp-1211922,K(InGa)2,0.0
mp-1224511,K(Mo2O3)4,0.0
mp-1103534,K(Mo3S4)2,0.0
mp-560296,K(Mo6S7)2,0.0
mp-19607,K(MoO3)3,0.0
mp-8116,K(MoS)3,0.0
mp-1224361,K(MoS)9,0.0
mp-1104242,K(MoSe)3,0.0
mp-1200661,K(NaIn3)3,0.2359999999999997
mp-1224709,K(Nb2Cl5)4,0.0
mp-1223960,K(Nb3S4)2,0.0
mp-1223754,K(Nb3Se4)2,0.0
mp-558518,K(NiS)2,0.0
mp-568747,K(NiSe)2,0.0
mp-1095186,K(NpSe3)2,0.0
mp-554461,K(OsO3)2,0.0
mp-1206920,K(PIr)2,0.0
mp-12098,K(PRh)2,0.0
mp-1207022,K(PRu)2,0.0
mp-5628,K(RuO2)4,0.0
mp-1211961,K(SiO2)2,0.0
mp-1223845,K(SiPd)4,0.0
mp-1223832,K(SiPt)4,0.0
mp-570068,K(Sn3Au2)2,0.0
mp-570936,K(SnAu)3,0.0
mp-30402,K(SnAu2)2,0.0
mp-9522,K(ThSe3)2,0.0
mp-1223885,K(ThTe3)2,0.0
mp-1223931,K(Ti3Se4)2,0.0
mp-1224082,K(Ti3Se4)4,0.0
mp-12414,K(USe3)2,0.0
mp-27889,K(V5S8)2,0.0
mp-676628,K(V5S8)3,0.0
mp-569185,K(WCl3)3,0.0
mp-761466,K(WO3)4,0.0
mp-690117,K(WO3)6,0.0
mp-705664,K(WO3)9,0.0
mp-621932,K(Zr3I7)2,0.0
mp-1224116,K(Zr3Te4)4,0.0
mp-1212168,K10CoMo7O27,2.2359999999999998
mp-1212012,K10Tl7,0.0
mp-685078,K11B62,0.0
mp-1201536,K12Sn4Au21,0.0
mp-569896,K14(Tl7Cd3)3,0.0
mp-1029863,K15Re7N19,0.0184000000000002
mp-1224497,K15Si92,0.0
mp-1197369,K16Na9(Tl6Cd)3,0.0
mp-1224669,K16Tl22Pd,0.0
mp-640781,K17In41,0.0
mp-1225049,K18Na46Tl31,0.0
mp-1202061,K19Na6Tl24Au,0.0
mp-28737,K2(CuTe)5,0.0
mp-1224406,K2(FeSe)5,0.0
mp-1224044,K2(NbS2)3,0.0
mp-1224047,K2(NbSe2)3,0.0
mp-1223710,K2(TaS2)3,0.0
mp-1223811,K2(TaSe2)3,0.0
mp-1195947,K23(Sn3Au4)3,0.0
mp-633668,K23Na8(CdIn4)12,0.0
mp-684037,K29NaHg48,0.0
mp-1206995,K2Ag,0.0
mp-1112101,K2AgAuBr6,0.0
mp-1112479,K2AgAuCl6,0.0
mp-1112289,K2AgAuF6,0.0
mp-1112279,K2AgPdF6,0.0
mp-1112276,K2AgRuF6,0.0
mp-554959,K2Al2Sb2O7,3.499
mp-1111999,K2AlAuBr6,0.0
mp-1112438,K2AlAuI6,0.0
mp-1112211,K2AlHgBr6,0.0
mp-1112210,K2AlHgCl6,0.0
mp-1112209,K2AlHgF6,0.0
mp-1112435,K2AsAuBr6,0.0
mp-1112432,K2AsAuI6,0.0
mp-8700,K2Au3,0.0
mp-1211975,K2B(PO4)2,0.0
mp-705892,K2B10H9O,0.0
mp-17166,K2B4O7,4.8210000000000015
mp-558951,K2B6H2O11,5.364199999999999
mp-1223672,K2Ba(BiO3)3,0.0
mp-1223766,K2Ba(FeAs)6,0.0
mp-684786,K2Ba6Yb3Bi5O24,0.0
mp-1211972,K2BaAs5,0.0
mp-24872,K2BaCo(NO2)6,0.0
mp-1211996,K2BaV2ClO7,0.0
mp-7385,K2Be2PbF8,5.5470000000000015
mp-1184760,K2Bi2O5,0.0
mp-1211945,K2C,0.0
mp-1223663,K2CaPrO4,0.0
mp-1197427,K2CaSi4O15,0.0
mp-1184757,K2CdAu,0.0
mp-504498,K2CdPb,0.0
mp-1207257,K2CdSb2,0.0
mp-680045,K2CeAg3Te4,0.0
mp-21546,K2CeNb5O15,0.0
mp-1212192,K2Co(SO7)2,0.0
mp-542914,K2Co3H6S3O16,2.857
mp-1204154,K2CoC4S4N4O3,0.0
mp-557427,K2CoF4,0.0
mp-5131,K2CoS2,0.0
mp-8768,K2CoSe2,0.0
mp-1212179,K2Cr2(PO4)3,0.0
mp-1211950,K2CrF6,0.0
mp-1147537,K2Cu(BrF)2,0.0
mp-1212137,K2Cu(HCl2)2,0.0
mp-1147659,K2Cu(IF)2,0.0
mp-1203158,K2Cu(SO5)2,0.279
mp-29828,K2Cu2Te5,0.0
mp-556787,K2Cu3S3O13,0.1973000000000001
mp-1111972,K2CuAuCl6,0.0
mp-1112010,K2CuAuF6,0.0
mp-1212639,K2CuCl4,0.0
mp-8388,K2CuF4,0.378
mp-1147780,K2CuH4,0.0
mp-1147602,K2CuI2O,0.0
mp-1232337,K2CuNi2(SO)2,0.0
mp-1021659,K2CuO2,0.0
mp-19863,K2CuPb(NO2)6,0.0
mp-1110856,K2CuSbCl6,0.0
mp-1110943,K2CuSbI6,0.0
mp-1212062,K2DyCl5,4.916399999999999
mp-1212082,K2ErSbO7,0.0
mp-755649,K2Eu2O3,0.0
mp-1112472,K2EuAgCl6,0.0
mp-1112428,K2EuAuCl6,0.0
mp-1212510,K2EuCl5,0.0
mp-1111984,K2EuCuCl6,0.0
mp-1198799,K2EuSi4O10F,0.0
mp-565929,K2EuTa5O15,0.0
mp-1212103,K2Fe2(PO4)3,0.0
mp-1224487,K2Fe2Co2C12N12O,0.0
mp-1223698,K2Fe2SeS3,0.0
mp-1224807,K2Fe9H18S6O43,0.0
mp-22776,K2FeCo(CN)6,0.0
mp-1211993,K2FeI4,0.0
mp-1112470,K2GaAgBr6,0.0
mp-1112466,K2GaAgI6,0.0
mp-1112070,K2GaAuBr6,0.0
mp-1112427,K2GaAuCl6,0.0
mp-1112071,K2GaAuI6,0.0
mp-1112204,K2GaHgBr6,0.0
mp-1111981,K2GaHgCl6,0.0
mp-1112234,K2GaHgF6,0.0
mp-1112206,K2GaHgI6,0.0
mp-707400,K2H17Ru2(SO6)4,0.10620000000000004
mp-1212402,K2HfO6,0.0
mp-6051,K2Hg(CN)4,5.8569999999999975
mp-31473,K2Hg7,0.0
mp-1112208,K2HgAsBr6,0.0
mp-1112212,K2HgAsCl6,0.0
mp-1112207,K2HgAsF6,0.0
mp-1112032,K2HgAsI6,0.0
mp-1184758,K2HgAu,0.0
mp-1111992,K2HgAuBr6,0.0
mp-1111937,K2HgAuF6,0.0
mp-1112205,K2HgBiBr6,0.0
mp-1112033,K2HgBiCl6,0.0
mp-1112367,K2HgBiF6,0.0
mp-1112030,K2HgBiI6,0.0
mp-1111958,K2HgIrF6,0.0
mp-1111936,K2HgPdF6,0.0
mp-1112198,K2HgRhF6,0.0
mp-1112028,K2HgSbBr6,0.0
mp-1112196,K2HgSbCl6,0.0
mp-1112195,K2HgSbF6,0.0
mp-1112197,K2HgSbI6,0.0
mp-1212022,K2HoF5,6.7784999999999975
mp-1212043,K2HoSbO7,0.0
mp-1192976,K2IO9,0.0
mp-1112095,K2InAgI6,0.0
mp-1112186,K2InAsF6,0.0
mp-1112020,K2InAsI6,0.0
mp-1112069,K2InAuBr6,0.0
mp-1111983,K2InAuCl6,0.0
mp-1112439,K2InAuI6,0.0
mp-1112160,K2InCuBr6,0.0
mp-1112383,K2InCuCl6,0.0
mp-1112203,K2InHgBr6,0.0
mp-1112200,K2InHgCl6,0.0
mp-1112199,K2InHgF6,0.0
mp-1112031,K2InHgI6,0.0
mp-1226012,K2InMo15Se19,0.0
mp-11174,K2IrF6,0.0
mp-569161,K2La6OsI12,0.0
mp-1232341,K2Li2Cu(BrO)2,0.0
mp-1232348,K2Li2Cu(IO)2,0.0
mp-774432,K2Li3NiO4,1.8090000000000002
mp-1111678,K2LiAuCl6,0.0
mp-1111273,K2LiEuCl6,0.0
mp-762634,K2LiMn2O4,0.0
mp-1111109,K2LiNbF6,0.0
mp-1110901,K2LiNdBr6,3.973
mp-1110836,K2LiNdF6,6.3790999999999976
mp-1111924,K2LiPdF6,0.0
mp-1111923,K2LiRuF6,0.0
mp-1111922,K2LiTaBr6,0.0
mp-1112861,K2LiTaCl6,0.0
mp-1111245,K2LiTaI6,0.0
mp-772826,K2LiTi2(AsO5)2,0.0
mp-1111107,K2LiTiF6,0.0
mp-1111921,K2LiVF6,0.0
mp-1110834,K2LiYF6,6.6971000000000025
mp-1211973,K2LuSbO7,0.0
mp-759183,K2Mg(H2N)4,2.2680000000000002
mp-1212019,K2Mg(SO6)2,0.012000000000000007
mp-6299,K2Mg2(SO4)3,5.5448999999999975
mp-13613,K2Mg2Be3F12,7.013199999999999
mp-758504,K2Mg3P4(H5O6)4,4.9860000000000015
mp-1223639,K2MgCuF6,0.0
mp-24438,K2MgH12(SO7)2,5.1960000000000015
mp-1181784,K2MgMo2(H2O5)2,4.347
mp-746793,K2Mn7H18(C9O20)2,0.0
mp-1211959,K2MnOF5,0.0
mp-566784,K2MnP2O7,4.590199999999999
mp-1200047,K2Mo(OF)4,0.026399999999999986
mp-553922,K2Mo15S19,0.0
mp-1204618,K2Mo15Se19,0.0
mp-579220,K2Mo7O20,0.0
mp-1223708,K2Mo8O13,0.0
mp-29784,K2Mo9S11,0.0
mp-27826,K2MoCl6,0.0
mp-1188508,K2MoO2F5,0.0
mp-1224991,K2Na2Ca4Mg15(SiO3)24,0.0
mp-1205131,K2Na2Eu4Nb2O13,0.0
mp-1203993,K2Na2Eu4Ta2O13,0.0
mp-1099821,K2Na2Mo(WO4)3,0.0
mp-1076836,K2Na2Mo3WO12,0.0
mp-1076812,K2Na2Nb(WO4)3,0.0
mp-1211956,K2Na4ZnSn2,0.0
mp-1099629,K2Na6V5(MoO8)3,0.0
mp-1111241,K2NaAuBr6,0.0
mp-1111131,K2NaAuCl6,0.0
mp-1111646,K2NaEuCl6,0.0
mp-1096633,K2NaHg,0.0
mp-1111104,K2NaNbF6,0.0
mp-556757,K2NaNiF6,0.0
mp-1211794,K2NaO2,0.0
mp-1111627,K2NaPdF6,0.0
mp-1111874,K2NaRuF6,0.0
mp-1110889,K2NaTaBr6,0.0
mp-1112873,K2NaTaCl6,0.0
mp-1111221,K2NaTaI6,0.0
mp-1182193,K2NaTeO12,0.0
mp-1111871,K2NaTiF6,0.0
mp-1080537,K2NaVF6,0.0
mp-1076215,K2Nb2O5,0.0
mp-1194979,K2Nb3H11C5(Cl3O4)2,1.118
mp-1112280,K2NbAgF6,0.0
mp-674326,K2NbCl3,0.0
mp-568405,K2NbCl6,0.0
mp-1112365,K2NbHgF6,0.0
mp-1111198,K2NbTlF6,0.0
mp-1212472,K2Nd4Ge4O17,0.0
mp-541810,K2Ni12As7,0.0
mp-773431,K2NiPCO7,0.0
mp-1180977,K2Os(NO5)2,0.0
mp-27835,K2OsBr6,0.0
mp-23533,K2OsCl6,0.0
mp-1080446,K2OsO6,0.0
mp-707096,K2P3H7O9,6.4620000000000015
mp-1224262,K2P3NO12,0.0
mp-1226443,K2P4PtBrO11,0.0
mp-1224224,K2PSO8,0.0
mp-1211842,K2PbCl5,0.0
mp-1180861,K2Pd,0.0
mp-1197648,K2Pt(C2O5)2,0.0
mp-1224094,K2PtI5,0.0
mp-1224513,K2PtI5O2,0.0
mp-862794,K2Pu2O5,0.0
mp-1025158,K2PuO4,0.0
mp-1111605,K2RbAuBr6,0.0
mp-1223949,K2RbCO3F,3.6660000000000004
mp-1110674,K2RbCeF6,0.0
mp-1211828,K2RbEuV2O8,0.0
mp-1111116,K2RbNbF6,0.0
mp-1111117,K2RbPdF6,0.0
mp-1079567,K2RbPt,0.0
mp-1111431,K2RbRuF6,0.0
mp-1110753,K2RbTaBr6,0.0
mp-1110715,K2RbTaCl6,0.0
mp-1110665,K2RbTaF6,0.0
mp-1110774,K2RbTaI6,0.0
mp-1111427,K2RbTiF6,0.0
mp-1211727,K2RbYbV2O8,0.0
mp-1080778,K2Re,0.0
mp-1225532,K2Re3S4O7,0.0
mp-867920,K2Rh2O5,0.0
mp-8018,K2RhF6,0.0
mp-1112257,K2RuAuF6,0.0
mp-1195869,K2RuCl5O,0.0
mp-989587,K2SBrCl6,0.0
mp-8483,K2SO3,4.914899999999999
mp-1212430,K2Sb9PbSe15,0.0
mp-1112418,K2SbAuBr6,0.0
mp-1112064,K2SbAuI6,0.0
mp-1224963,K2Sc2P2WO12,3.689
mp-1111989,K2ScHgBr6,0.0
mp-1111990,K2ScHgCl6,0.0