task_id,pretty_formula,band_gap
mp-764375,Li2VF6,1.9707999999999999
mp-764379,V2O2F3,1.2749000000000001
mp-767275,Li2CoCuO4,0.0
mp-767299,Li3Co2CuO6,0.0
mp-767334,Li2TiCr2O6,2.2359999999999998
mp-767412,Li3(CoS2)4,0.0
mp-767737,Co9Cu3O16,0.0
mp-767757,Li3Cr4(PO4)6,0.0
mp-767798,Ni17(AsO4)12,0.0
mp-770866,LiMn5O8,0.0
mp-770870,MnTlO3,0.0
mp-770874,Na6Co2P(CO4)4,0.0
mp-770899,Li2V3O8,1.9909999999999999
mp-770911,Li3Fe4CuO8,0.0
mp-770972,Li2Ni3BiO8,0.32699999999999996
mp-770976,Li3Mn(CoO2)4,0.0
mp-770987,Li3Fe(NiO2)4,0.0
mp-771396,Li4(FeO2)9,0.0
mp-771456,TeWO6,1.8189000000000002
mp-771458,Mn5CoO12,1.3392999999999997
mp-772309,Li3Ti(CuO2)4,0.0
mp-772317,Li3Co(NO2)6,2.3954999999999997
mp-772324,Li3MgNi3O8,0.238
mp-772355,Li3Cu(NiO2)4,0.0
mp-772368,Li2TiFe3O8,0.0
mp-772369,Li2Mn3WO8,0.0
mp-772370,Li2Ni3WO8,0.0
mp-775130,Li2CrO3,0.49339999999999984
mp-775204,Li2V3WO8,1.4997000000000003
mp-775209,Li2MnNb3O8,0.047800000000000065
mp-775214,LiVCuO4,0.0
mp-775235,Li2Mn2SbO6,0.0
mp-775277,K(WO3)3,0.0
mp-775311,LiCuSbO4,0.0
mp-775392,Li2Ti3MnO8,1.7513000000000005
mp-775407,Li3Ti(FeO3)2,0.0
mp-775434,CrBiO4,0.0
mp-779855,Na6V2P(CO4)4,0.0
mp-779898,Na6NiO4,1.2905999999999997
mp-779908,Na2FeO3,0.28710000000000013
mp-779923,Fe2O3F,0.0
mp-779929,LiCr(CoO3)2,0.0
mp-779957,SrLiLa7Fe3O16,0.0
mp-779965,V2O3F,0.0
mp-779977,Li2Co3NiO8,0.0
mp-779991,Li2Cr3FeO8,0.38260000000000005
mp-780013,Fe3(O2F)2,0.0
mp-780014,Li2Cr3FeO8,0.0
mp-780075,Hf2N2O,1.9925000000000006
mp-780087,LiMnSiO4,1.1322000000000005
mp-780091,Fe3(O2F)2,0.0
mp-780119,V6O11F,0.45829999999999993
mp-868360,Co3TeO8,0.0
mp-868760,Li3Ti2VO6,0.0
mp-868821,Li2TiCr3O8,0.0
mp-868843,MnCo3O8,0.9382999999999999
mp-971775,ZnPb3,0.0
mp-971788,VRu3,0.0
mp-971794,YMg3,0.0
mp-971806,TmFeGe2,0.0
mp-971813,TmB4Ru,0.0
mp-971831,Tm3Th,0.0
mp-971832,ZnIn3,0.0
mp-971833,Tm3V,0.0
mp-971835,Tl3H,0.0
mp-971855,Tm2Co3Si5,0.0
mp-971864,U2Ga2O5,0.0
mp-971901,ZnPb3,0.0
mp-971906,TmBi3,0.0
mp-971909,ZnPd3,0.0
mp-971914,SrSiPt,0.0
mp-971919,ZnSn3,0.0
mp-971920,TmMg3,0.0
mp-973675,Hf9AsW4,0.0
mp-973684,LuMg3,0.0
mp-973685,NdHo3,0.0
mp-973689,Ho3Lu,0.0
mp-973741,LiHo3,0.0
mp-973748,LiIn3,0.0
mp-973767,PmBi3,0.0
mp-973773,Nd2Cd2O5,0.0
mp-973792,Pa3Tl,0.0
mp-973815,Pa3Ta,0.0
mp-973866,LuOs3,0.0
mp-973876,PaBi3,0.0
mp-973878,Lu3Ga5Ni,0.0
mp-973881,PmDy3,0.0
mp-975653,PrS3,0.0
mp-975658,PrHo3,0.0
mp-975665,Nd(Ge3Pt)4,0.0
mp-975726,PrAl4Co,0.0
mp-975729,Pr(BRu)2,0.0
mp-975738,Pr(BOs)2,0.0
mp-975784,PrY3,0.0
mp-975795,PrTm3,0.0
mp-975799,LiZn3,0.0
mp-975812,PrSm3,0.0
mp-975821,K3Ir,0.0
mp-975838,K3Nd,0.0
mp-975857,K3Mg,0.0
mp-975872,K3Pr,0.0
mp-975921,HfRu3,0.0
mp-995181,SnGe,0.21999999999999975
mp-995182,NdB4,0.0
mp-995183,CO,0.0
mp-995184,HC2,0.0
mp-995195,HC,0.0
mp-995200,HC3,0.0
mp-995205,VMo,0.0
mp-995236,GeH6CI3N,0.9326999999999999
mp-995434,Fe11MoC4,0.0
mp-996161,Nb3AlC2,0.0
mp-996942,Ba6In2NF,0.0
mp-996945,Cs2TlInH6,0.0
mp-753306,YUO4,0.0
mp-753314,Eu2SeO2,0.0
mp-753326,LiAg2F6,0.0
mp-753342,LiCuF4,0.0
mp-753349,LiTiSiO4,0.0
mp-753360,BiOF,3.0513999999999997
mp-753384,Nb4Tl4O13,0.0
mp-753385,LiAg2F4,0.0
mp-753397,Ga2CuO4,0.0
mp-753490,TiCuGe,0.0
mp-753495,Sb3O7F,0.0
mp-753506,LiBiS2,0.0
mp-753524,La2(BiO2)7,0.0
mp-753555,Ce3Th2O9,0.0
mp-753581,LaUO4,0.0
mp-753585,Li14Fe2S9,0.0
mp-753629,Zr2O,0.0
mp-755089,ZrO2,3.9596999999999998
mp-755109,YErO3,4.5443999999999996
mp-755117,Ba2IrO4,0.0
mp-755127,Ag2GeO4,0.0
mp-755137,BiO2,0.0
mp-755142,La2MgO4,3.375400000000001
mp-755159,Tl2Ge2O7,0.0
mp-755169,Tl6S,0.0
mp-755177,EuSeO3,0.010200000000000209
mp-755183,DyTlO2,1.4823999999999997
mp-755194,Er(ReO4)2,0.0
mp-755245,LiCuPO4,0.0
mp-755298,Li4NbO4,0.0
mp-755302,TiNbO4,0.0
mp-755313,Sc2O3,4.127599999999999
mp-755315,BaTl2O4,0.009199999999999875
mp-764384,Li2Mn4OF8,1.2026000000000001
mp-764386,Li6Mn(FeO3)2,2.6299000000000006
mp-764459,Li3Fe4(BO3)4,1.8891000000000002
mp-764469,LiFe2(BO3)2,1.4644000000000001
mp-764472,LiFe4(BO3)4,1.4752000000000003
mp-764484,LiMnV(P2O7)2,1.3442000000000003
mp-764486,Li3Fe4(BO3)4,1.6499000000000001
mp-764492,LiFe8(BO3)8,1.2449999999999999
mp-764762,Li(FeO2)2,0.0
mp-764767,LiNiO2,0.0
mp-764780,LiCr2O4,0.0
mp-764783,LiMnF3,2.7119999999999997
mp-764786,Li4Mn(OF)2,2.7762000000000002
mp-764788,LiMn2OF3,1.8555000000000001
mp-764822,Li2VO2F,0.9658999999999995
mp-769262,K5YO4,2.2965999999999998
mp-769263,TbInO3,2.5934999999999997
mp-769265,Na6Bi2As(CO4)4,0.0
mp-769268,Sr4Ta2O9,4.1431000000000004
mp-769271,Sr4Ta2O9,4.1956999999999995
mp-769277,Yb2TeO2,0.0
mp-769307,Ca4Ta2O9,4.500500000000001
mp-769344,Ba4Ta2O9,3.3705999999999996
mp-769373,Na6Sn2P(CO4)4,0.0
mp-769432,Co15O28,0.48350000000000004
mp-769482,Na3Mn2P2(CO7)2,0.0
mp-772379,Li2Ni3TeO8,0.0
mp-772384,LiNbCoO4,2.2631000000000006
mp-772390,LiAlFeO4,0.0
mp-772394,Li2NbNi3O8,0.0
mp-772420,Li2Co3SnO8,0.0
mp-772434,Li4CrO4,1.7266000000000001
mp-772446,Co3SnO8,0.0
mp-775459,CrP4O11,2.6607999999999996
mp-775462,LiFeCuO4,0.0
mp-775467,Li5MnO4,1.2669000000000001
mp-775470,Na3Mn2P2(CO7)2,0.0
mp-775497,Na2NiPCO7,0.0
mp-775498,LiNi(SO4)2,0.0
mp-775501,Na3Ni2P2(CO7)2,0.0
mp-775532,LiNbCoO4,1.0190000000000001
mp-775559,Na3Ni2P2(CO7)2,0.0
mp-775562,Na3Ni2P2(CO7)2,0.0
mp-780132,NaCr6O11,0.0
mp-780142,Li5(NiO2)4,0.0
mp-780161,LiMnO2,0.0
mp-780194,Li3Mn4(BO3)4,0.0
mp-780202,Li2FeO2F,1.6583999999999999
mp-780205,Fe6O11F,0.0
mp-780209,Fe6O11F,0.0
mp-780231,Hf2N2O,1.9967000000000006
mp-780232,Hf2N2O,2.0774999999999997
mp-780275,AgBO3,0.0
mp-780283,Li4V3OF11,1.8082999999999998
mp-780325,LiMnSiO4,0.0
mp-780353,Na6B4Sb2SO16,0.0
mp-780360,Na8Gd2O7,1.8545000000000003
mp-780399,Na6B4Sb2PO16,0.0
mp-780401,Li6Cu2C4SO16,0.0
mp-780412,Na6Bi2B4AsO16,0.0
mp-780415,NaEuO2,0.0
mp-780443,Li8MnFe7(BO3)8,3.0650999999999997
mp-780454,SrCa2I6,3.7009000000000003
mp-780480,Li11V6O5F19,0.0
mp-935266,LiC2NO6,1.616
mp-937761,Li7ZrO6,0.0
mp-972049,Tb(AlC)3,0.0
mp-972055,Rb3Yb,0.0
mp-972063,YbGe3,0.0
mp-972084,TbMn12,0.0
mp-972088,Zr3Zn,0.0
mp-972095,Zn3Hg,0.0
mp-972099,YbMg3,0.0
mp-972125,LiTb3,0.0
mp-972147,UZn3,0.0
mp-972170,TbY3,0.0
mp-972175,Zn3In,0.0
mp-972187,ZrSiPt,0.0
mp-972220,TiPt3,0.0
mp-972224,TaGeRh,0.0
mp-972257,LaTb3,0.0
mp-972286,SrCe3,0.0
mp-972318,TiSn3,0.0
mp-972320,UNiB4,0.0
mp-972351,Tl,0.0
mp-972364,Yb,0.0
mp-972408,UBiTe,0.0
mp-972411,Tb3Yb,0.0
mp-972416,Tm3Lu,0.0
mp-972423,TbGa2Pd,0.0
mp-972454,Sm2Mg,0.0
mp-972463,Tm5Sb3,0.0
mp-972467,TbNiB4,0.0
mp-972471,Sm3Ho,0.0
mp-972472,SnAs3,0.0
mp-972479,Sm3Sc,0.0
mp-972486,Sm3Ti,0.0
mp-972494,SmMg3,0.0
mp-972507,Yb2Co2O5,0.0
mp-972517,SmY3,0.0
mp-972521,SmGe,0.0
mp-972524,SmSiAg,0.0
mp-972534,SmDy3,0.0
mp-972549,SmLu3,0.0
mp-972557,SmAg3,0.0
mp-972607,SmHo3,0.0
mp-972658,SmBi3,0.0
mp-972659,SmCoSi3,0.0
mp-973904,HfCr2,0.0
mp-973911,Pa3Re,0.0
mp-973920,Lu2Ta2O5,0.0
mp-973921,Lu2Ni12As7,0.0
mp-973938,LuCoGe2,0.0
mp-973953,NdCl2,0.0
mp-973965,Nd3Ag,0.0
mp-973974,K3Mo,0.0
mp-973983,NiPd3,0.0
mp-973992,Ho3Pb,0.0
mp-974000,Lu2Fe17C3,0.0
mp-974023,In3Cu,0.0
mp-974030,LaRh3,0.0
mp-974042,Nd2Co12P7,0.0
mp-974049,Hf3Pt,0.0
mp-974057,Lu2Ni12P7,0.0
mp-974068,Nd3Th,0.0
mp-974313,NaMg3,0.0
mp-974322,Ho3Mg,0.0
mp-974325,NdDy3,0.0
mp-974326,OsRu3,0.0
mp-974330,SBr3,0.0
mp-974332,S3Br,0.0
mp-974355,Mn2S3,0.0
mp-974365,RuAu3,0.0
mp-974372,Rh3Se,0.0
mp-974392,HoB4Ru,0.0
mp-974399,HoNiGe2,0.0
mp-974411,Re3Tc,0.0
mp-974425,Re3Si,0.0
mp-974426,Re3Sn,0.0
mp-974455,Re3Ru,0.0
mp-974482,K4Hf5O12,3.268
mp-974492,ReTc3,0.0
mp-974525,ReAg3,0.0
mp-974568,Re3Bi,0.0
mp-974572,Rb3Si,0.0
mp-974589,Re3Mo,0.0
mp-974591,Rb4NO,0.0
mp-974625,Re3Ru,0.0
mp-974635,Rb3Ca,0.0
mp-974658,Rb3Ac,0.0
mp-974662,Rb3Pr,0.0
mp-976029,Ho3Zr,0.0
mp-976053,Ge3Te,0.0
mp-976064,Ho6CoTe2,0.0
mp-976075,Li3Ca,0.0
mp-976080,Ge3B,0.0
mp-976106,Hf3Tl,0.0
mp-976115,K3Rb,0.0
mp-976128,Hf5Sc,0.0
mp-976135,PrEr3,0.0
mp-976139,Li3Mg,0.0
mp-976187,Pr(Al2Fe)4,0.0
mp-976221,K3Sm,0.0
mp-976223,K3Sr,0.0
mp-976244,LiMg,0.0
mp-976249,NdS3,0.0
mp-976262,LiMg,0.0
mp-976272,LiCa3,0.0
mp-976273,Hf3Ge2,0.0
mp-976291,LiAlH4,3.9596999999999998
mp-976355,Lu3Si,0.0
mp-976356,NdSc3,0.0
mp-976357,Lu3Sn,0.0
mp-976365,Nd3Au,0.0
mp-976368,NdAlPd,0.0
mp-976373,K3Y,0.0
mp-976397,Ho3(In2Co)2,0.0
mp-976407,Li3Ac,0.0
mp-976409,K3Nb,0.0
mp-976410,Nd3Cr,0.0
mp-976417,Nd3Hg,0.0
mp-976418,Nd3Ho,0.0
mp-976419,Hf3Bi,0.0
mp-976421,Nd3Mg,0.0
mp-976423,Nd3Pd,0.0
mp-976425,Nd2Mg,0.0
mp-976447,NaCrH8(NF3)2,3.9976000000000003
mp-976581,Nd3I,0.0
mp-976582,HfSb3,0.0
mp-976583,K3Co,0.0
mp-976584,Hf9Mo4As,0.0
mp-976593,Nd3Si,0.0
mp-976597,Ho2Co7B3,0.0
mp-976679,HoSb3,0.0
mp-976724,Hf(VH2)2,0.0
mp-976742,MgPa3,0.0
mp-976765,Na3Au,0.0
mp-976768,NaMg3,0.0
mp-996954,CuPtO2,0.0
mp-996955,HAuO2,1.2630000000000001
mp-996958,AgHO2,0.0
mp-996961,LiAuO2,1.4041000000000001
mp-996963,CdAgO2,0.0
mp-996964,CdAgO2,0.0
mp-996968,AgBiO2,1.6797999999999997
mp-996971,CuPdO2,0.0
mp-996973,CuHgO2,0.0
mp-996975,CuAgO2,0.0
mp-996977,AgAuO2,0.0
mp-996978,CuAuO2,0.0
mp-996979,BaAgO2,0.0
mp-996980,AgAuO2,0.0
mp-996983,AgAuO2,0.9044000000000003
mp-996989,LiAgO2,0.0
mp-996993,CuBrO2,0.0
mp-996995,MnAgO2,0.28949999999999987
mp-996999,CuHO2,0.0
mp-997001,AgHgO2,0.0
mp-997004,CaAgO2,0.0
mp-997007,AgPtO2,0.052200000000000024
mp-997008,TlAuO2,0.0
mp-997010,TlAgO2,0.0
mp-997012,CuPdO2,0.0
mp-997013,AgClO2,0.0
mp-997014,PbAuO2,0.0
mp-997015,PbAuO2,0.0
mp-997017,AgClO2,0.025400000000000006
mp-997027,AuO2F,0.9531000000000001
mp-997029,TlCuO2,0.0
mp-997031,MgCuO2,0.0
mp-997032,MgAuO2,0.0
mp-997034,BaCuO2,0.0
mp-997039,AgPdO2,0.0
mp-997043,PbAuO2,0.0
mp-997044,CuO2F,0.0
mp-997090,PdAuO2,0.0
mp-997095,NiAuO2,0.0
mp-997099,PdAuO2,0.0
mp-997100,SrAgO2,0.0
mp-997101,AgO2F,0.0
mp-997104,CuClO2,0.0
mp-997107,CuO2F,0.0
mp-997108,RbAgO2,1.1682000000000001
mp-997158,CoAuO2,0.0
mp-997162,MnAgO2,0.0
mp-997183,MnAuO2,0.0
mp-997394,NbAgF6,2.8552999999999997
mp-997591,CsNa7Ta8O24,0.0
mp-998154,TlAgBr3,0.0
mp-998195,RbInCl3,0.0
mp-998201,RbAgCl3,0.0
mp-998212,RbAgBr3,0.0
mp-998233,InGeCl3,2.2298999999999998
mp-998308,CsScBr3,0.0
mp-998309,CsNaF3,0.0
mp-998323,CsInBr3,0.0
mp-998363,NiBiO3,0.0
mp-1001793,KCoCl3,0.0
mp-1005761,SmGd3,0.0
mp-1005762,Sm3Au,0.0
mp-1005895,Sm3Gd,0.0
mp-1006242,EuInNi5,0.0
mp-1006283,Er3(In2Co)2,0.0
mp-1006815,CsH3,0.0
mp-1012640,CrFeCoNi,0.0
mp-1012740,H6RuCI3N,0.0
mp-1014342,CrN2,0.0
mp-1014558,Cr3N4,0.0
mp-1014565,CrN2,0.0
mp-1015612,CrN2,0.0
mp-1016058,CrN2,0.0
mp-1016214,Bi2H18C3(IN)9,2.8455999999999997
mp-1016304,CsMg6B,0.0
mp-1016334,SrMg6B,0.0
mp-1016337,SrMg6B,0.0
mp-1016372,CsMg6Sb,0.0
mp-1016377,CsHfMg6,0.0
mp-1016428,SrMg6C,0.0
mp-1016442,SrMg6Ga,0.0
mp-1016475,CsMg6Ga,0.0
mp-1016572,CsMg6Ga,0.0
mp-1016576,BaMg6B,0.0
mp-1016601,Mg6NbC,0.0
mp-1016630,Mg6NbC,0.0
mp-1016647,BaMg6B,0.0
mp-1016659,BaMg6C,0.0
mp-1017531,VPt,0.0
mp-1017559,Eu(ZnAs)2,0.0
mp-1017630,Mg2ZnAs2,0.0
mp-1018705,GdCuPb,0.0
mp-1018953,PuSbTe,0.0
mp-1019107,PuTe2,0.0
mp-1019597,Ce4B14O27,0.051000000000000156
mp-1019736,CsEu(PO3)4,0.0
mp-1020896,Rb4Ge3B6O17,3.8545999999999996
mp-1024087,Zr63S128,0.0
mp-1024954,HoCuSn,0.0
mp-1024955,PrNiSb,0.0
mp-1024956,LaB2Pd2C,0.0
mp-1024964,PrSbPd,0.0
mp-1024969,NpF5,0.0
mp-1024975,CeB2Pt2C,0.0
mp-1024986,CeSbPd,0.0
mp-1024988,LiYb(CuP)2,0.0
mp-1024989,YB2Pd2C,0.0
mp-1024998,ScCoSi,0.0
mp-1024999,HoCr2Si2C,0.0
mp-1025017,NdSi2Ru3,0.0
mp-1025025,ThCoSi,0.0
mp-1025028,PrSiAg,0.0
mp-1025030,ErPt5,0.0
mp-1025041,ThB2Pd2C,0.0
mp-1025079,EuAsPd,0.0
mp-1025082,LaSbPd,0.0
mp-1025087,NdNiSb,0.0
mp-1025098,ThSiPt,0.0
mp-1025099,TbGaI,0.0
mp-1025102,CeAl3Pt2,0.0
mp-1025108,GdAlGe,0.0
mp-1025119,LaScSi,0.0
mp-1025128,LaCuPb,0.0
mp-1025136,EuAl3Cu2,0.0
mp-1025144,CeGaGe,0.0
mp-1025155,LuGa5Co,0.0
mp-1025158,K2PuO4,0.0
mp-1025167,Hf(VGa2)2,0.0
mp-1025170,Ti3B4,0.0
mp-1025176,HfGa5Ni,0.0
mp-1025177,Rb2CuF4,0.0
mp-1025191,ScGa5Ni,0.0
mp-1025193,HfGa5Co,0.0
mp-1025198,NpGa5Ni,0.0
mp-1025200,Eu2TiO4,0.0
mp-1025206,Eu2AlNO3,0.0
mp-1025208,Cs2PuO4,0.0
mp-1025213,InPPt5,0.0
mp-1025225,ErGa5Co,0.0
mp-1025229,TiGa5Co,0.0
mp-1025237,Ba2RuO4,0.0
mp-1025241,ScGa5Fe,0.0
mp-1025242,ScGa5Co,0.0
mp-1025246,Er2B4C,0.0
mp-1025257,TmGa5Co,0.0
mp-1025265,Cs2CuF4,0.0
mp-1025275,Ce2AlNO3,0.0
mp-1025280,Sr2Cu(OF)2,0.0
mp-1025283,PrIn5Rh,0.0
mp-1025288,TbGa5Co,0.0
mp-1025305,Nb2CuS4,0.0
mp-1025306,AlAsPt5,0.0
mp-1025312,Mn(NbS2)2,0.0
mp-1025313,TiGa5Ni,0.0
mp-1025319,Nd2PdO4,0.0
mp-1025324,SiSnPt5,0.0
mp-1025325,NpGa5Co,0.0
mp-1025331,In2AgSe4,0.0
mp-1025333,AgWS4N,0.0
mp-1025334,Cs2TmH4,0.0
mp-1025338,Tl2CuF4,0.0
mp-1025340,Cu2WSe4,1.2631000000000001
mp-1025343,Mn(NCl2)2,0.0
mp-1025350,Nb2CoS4,0.0
mp-1025352,Ce2C(NO)2,0.0
mp-1025353,TlAsPt5,0.0
mp-1025355,ZrGa5Co,0.0
mp-1025356,ZnAsPt5,0.0
mp-1025360,Na2Ti2As2O,0.0
mp-1025366,SiSbPt5,0.0
mp-1025371,CdPd5Se,0.0
mp-1025375,YGa5Co,0.0
mp-1025379,Tb2B4C,0.0
mp-1025387,TbO3,0.18839999999999996
mp-1025406,LiP3,0.0
mp-1025410,LuU2S3O2,0.0
mp-1025427,Ta2GaC,0.0
mp-1025436,YU2S3O2,0.0
mp-1025440,CuGe3,0.0
mp-1025443,ThCd3,0.0
mp-1025447,TlCu4Se3,0.0
mp-1025449,TbInPt2,0.0
mp-1025451,HfNi2Sb,0.0
mp-1025455,LiNb2O,0.0
mp-1025457,HfAl5Ni2,0.0
mp-1025473,Li2NdGe,0.0
mp-1025490,TmU2S3O2,0.0
mp-1025498,Tb2CBr,0.0
mp-1025510,FeCu2SiSe4,0.0
mp-1025519,RbCu4S3,0.0
mp-1025524,Zr2TlC,0.0
mp-1028432,CeMg14Fe,0.0
mp-1030398,Te2MoWS2,0.38260000000000005
mp-1030507,Te2Mo3W(SeS2)2,0.0
mp-1030517,TeMoWSeS2,0.11709999999999976
mp-1030519,MoWSe3S,1.0995000000000001
mp-1030568,Te2MoW3(Se2S)2,0.038599999999999746
mp-1030570,Te2MoWSeS,0.0
mp-5248,Na5SnAs3,0.39369999999999994
mp-600054,SiO2,5.677300000000001
mp-600070,SiO2,5.8759999999999994
mp-600084,SiO2,5.549
mp-600165,FeH24C8(NCl2)2,0.013899999999999801
mp-600293,YPdPb,0.0
mp-600480,Y12Ni6Pb,0.0
mp-601837,MoH2(CO2)2,0.0
mp-603326,Gd2CdPd2,0.0
mp-604209,H6SN2,1.2491999999999999
mp-604516,Y2AlNi2,0.0
mp-605060,CeFeAsO,0.0
mp-605935,K5Eu2Si4O13F,0.0
mp-607182,GdCuSi,0.0
mp-607785,Rb6LiNd11Se12(Cl4O9)4,3.1140999999999996
mp-607853,Na8In6Au11,0.0
mp-607960,Cd27Pd8,0.0
mp-608408,Ba2GdSbO6,0.0
mp-609413,Eu2Ga3Ir,0.0
mp-610645,Ce(NiAs)2,0.0
mp-610787,Gd(CrSi)2,0.0
mp-612670,YNiBC,0.0
mp-617430,Sr15Fe10(Bi5O23)2,0.0
mp-617840,Ba3Ce2C5O15F2,0.0
mp-619101,Cs6ZnGe8,1.1262999999999999
mp-621694,CdCN2,0.0
mp-622496,NaMnCr(CN)6,0.0
mp-622508,GdSi2Rh3,0.0
mp-622628,Cu2SbO5,0.011999999999999567
mp-623043,GdInRh,0.0
mp-623088,KTbF5,0.0
mp-623165,Cs2Ce10Os2I17,0.0
mp-623452,Mn3Bi,0.0
mp-623670,Ce5C2Br9,0.0
mp-623787,Cs2K2B10O17,4.786700000000001
mp-623988,GdCdPd,0.0
mp-624355,Ce14Si11Ni6,0.0
mp-624889,C,0.0
mp-624929,CdInGaS4,0.0
mp-626297,Ba(H8O5)2,3.6622999999999997
mp-626570,FeHO2,0.23430000000000006
mp-626573,FeHO2,0.9577000000000001
mp-626981,Eu(GeRh)2,0.0
mp-627409,Ce5C2Cl9,0.0
mp-628758,Eu2Ge2Se5,0.0
mp-649509,Yb2(SeO4)3,0.0
mp-673662,Ce3(Si3Pd10)2,0.0
mp-673667,TiO,0.0
mp-673681,Ta11O2,0.0
mp-673685,Li17(MnAs2)4,0.0
mp-673706,Li7(Mo3Se4)4,0.0
mp-675608,Nb3(CuTe3)2,0.0
mp-675648,Pr9Be4O20,0.030899999999999928
mp-679949,La15B14C19,0.0
mp-679951,Ba17Al3O7,0.0047000000000001485
mp-679962,Ti8Se3,0.0
mp-679986,Ce3Br6N,0.0
mp-679997,CsAg2(B5O8)3,3.5835999999999997
mp-680039,Ce4(LuS2)11,0.0
mp-680054,Ce5B4C5,0.0
mp-680184,TaSe2,0.0
mp-680193,Ca4Al6O13,3.6049999999999995
mp-680202,Ag2SnO3,0.0
mp-680211,Cu9Se4(Cl3O7)2,0.0
mp-686369,Ta22(CuS12)3,0.0
mp-686465,Gd2Ti2O7,2.4234999999999998
mp-686499,Ba32Sb7Pb25O96,0.0
mp-690128,Mn2CuO4,0.0
mp-705085,LiCrP4O13,0.0
mp-705096,Sr3La7Mn8(FeO15)2,0.0
mp-705127,Mo2P3Pb2BrO15,0.0
mp-705277,Li2Co(PO3)4,2.9246999999999996
mp-705284,W5O14,0.0
mp-705288,La5Mn7Co(PbO8)3,0.0
mp-705315,LiCr(PO3)5,0.19090000000000001
mp-705347,Co6P7O24,0.0
mp-755346,Li5BO4,5.184900000000001
mp-755347,LiCuTeO4,0.0
mp-761960,Ba8Fe8O21,0.0
mp-762148,Mn7Co(PO4)12,0.0
mp-762151,Sr21Co14O43,0.0
mp-762159,Mn11In25O48,0.0
mp-762168,LiNiPO4,3.6481000000000003
mp-764839,Na4FeO5,0.0
mp-764854,Li5Fe8(BO3)8,1.3013000000000001
mp-764874,Li3Fe8(BO3)8,1.566
mp-768939,Sn2(SO4)3,2.3468999999999998
mp-769486,Na3Ni2P2(CO7)2,0.0
mp-769490,Na3Ni2P2(CO7)2,0.027200000000000002
mp-769496,Na3Ni2P2(CO7)2,0.0
mp-769504,Na2NiPCO7,0.0
mp-769524,Li11Nb4(Ni3O8)3,1.2260999999999997
mp-775601,Li5Mn3Bi2(PO4)6,0.0
mp-775604,Li6Cr3Cu(PO4)6,0.0028999999999999027
mp-775608,Li2MnCr3O8,0.08610000000000007
mp-775613,NaMnPCO7,0.9207000000000001
mp-775616,Li2Ti3CrO8,0.0
mp-775620,CoOF,0.0
mp-775621,MnOF,0.0
mp-778663,Ti4O7,0.0
mp-778679,Li5Mn8(BO3)8,0.0
mp-778856,Li3Mn4(BO3)4,0.47950000000000004
mp-780528,Na6Cr2C4SO16,0.0
mp-780531,Na3Mn3O8,0.0
mp-853258,Li2V2(PO4)3,0.0
mp-853270,Li5Mn6(BO3)6,0.32400000000000007
mp-866659,H34C19,5.679
mp-972662,Sm2Fe17C3,0.0
mp-972680,Sm(AgGe)2,0.0
mp-972722,SmAs3,0.0
mp-972748,Si3W,0.0
mp-972759,Tm2Ni12As7,0.0
mp-972763,Si3Pt,0.0
mp-972784,SiTc3,0.0
mp-972793,Si2B2O5,0.0
mp-972876,Sc3Cd,0.0
mp-972889,ScSn3,0.0
mp-974672,Rb3Er,0.0
mp-974774,Rb3Tc,0.0
mp-974788,Nd,0.0
mp-976797,Pm3Sc,0.0
mp-976804,NiAgTe2,0.0
mp-976806,NiAu3,0.0
mp-976823,LaPm3,0.0
mp-976824,MgPb3,0.0
mp-976828,MgPb3,0.0
mp-976829,NaDy3,0.0
mp-976838,Ni3Au,0.0
mp-976843,Li2Mg,0.0
mp-976867,Pm3I,0.0
mp-976885,Li2Mg,0.0
mp-976892,Na(TeMo)3,0.0
mp-998366,RbSeBr3,0.0
mp-998367,YReN3,0.0
mp-998415,CsSeBr3,0.0
mp-998420,KCrCl3,0.0
mp-998429,NiAgF3,1.8226999999999998
mp-998432,CaTcO3,0.0
mp-998554,KAgCl3,0.0
mp-998610,TlAgCl3,0.0
mvc-14380,Y8Cu3(SnS7)3,0.0
mvc-14430,Y8Cu3(SiS7)3,0.0
mp-10112,LaB2Ir3,0.0
mp-1013582,Ba3Sb2,0.0
mp-1024963,TbCo2B2C,0.0
mp-1025043,UAl2Cu3,0.0
mp-1025503,Cr3Co,0.0
mp-1029357,NaZnN,0.0
mp-1078533,Th(AlAu)2,0.0
mp-1078722,Eu(AsPt)2,0.0
mp-1084748,Ni(N3Cl)2,0.0
mp-1094035,UGaCu,0.0
mp-1094242,Mg2Sn,0.0
mp-1094506,MgTi2,0.0
mp-1094605,LiMg2,0.0
mp-1097889,NiBrO,0.0
mp-1099106,KCeMg14,0.0
mp-1099110,NaCaMg6,0.0
mp-1099223,CsMg6WO8,0.0
mp-1099294,Mg6NiB,0.0
mp-1099305,KMg6Sb,0.0
mp-1099326,CeMg6Si,0.0
mp-1099788,Sr2Ca6Mn7FeO24,0.0
mp-1099943,K5Na3Nb4(WO6)4,0.0
mp-1100156,RbMg6Sb,0.0
mp-13614,Rb2Be3Cd2F12,5.2364999999999995
mp-14266,Cu15Si4,0.0
mp-14344,Yb2(NiB2)3,0.0
mp-14786,Ba(Cu2As)4,0.0
mp-16992,NaAg3S2,0.9283999999999999
mp-17488,Tl2Fe3S4,0.0
mp-19271,BaCrO3,0.0
mp-20467,PuB4,0.0
mp-20535,TbSiRh,0.022199999999999775
mp-2768,Ba2As,0.0
mp-3084,Sc2Ni12P7,0.0
mp-3128,ErCoSi2,0.0
mp-31294,Sr2In3Rh2,0.0
mp-3827,KFeS2,0.0
mp-417,MnRh,0.0
mp-4212,Nb3Co4B7,0.0
mp-4527,Li8SnO6,3.8134000000000006
mp-505016,CsMnAs,0.011600000000000055
mp-561197,TaF5,5.5329999999999995
mp-567109,Mn2Fe3(SiO4)3,0.0
mp-567204,Ho8Mg12Zn61,0.0
mp-5787,SrCuO2,0.0
mp-606213,Cs2UMoO7,1.9349999999999998
mp-632802,Ba2CaTlCu2O7,0.0
mp-635331,Ba2CoC2(O3F)2,3.066
mp-635426,GdAu,0.0
mp-636821,U6Ni,0.0
mp-639228,Tb2Mn3Si5,0.0
mp-639675,EuCu,0.0
mp-639774,Sr,0.0
mp-645316,C7F3,1.4237999999999997
mp-647,NbS,0.0
mp-649,FePt3,0.0
mp-651406,MnInFe(CO)9,2.1452999999999998
mp-6635,Ba2CaReO6,0.0
mp-667545,Ir3(CO)8,2.4358999999999997
mp-672653,Nb6Ni16Ge7,0.0
mp-675743,Mg(Mo3Se4)2,0.0
mp-675744,Yb4Zr3O12,0.0
mp-675745,Cu(Mo3S4)2,0.0
mp-675780,KNb3F9,0.0
mp-675786,Cu3(BiI4)4,0.0
mp-675833,Mg(Mo3Se4)2,0.0
mp-676009,Na3Cr11Se20,0.0
mp-676013,Yb2FeS4,0.0
mp-676084,Na2SnS,0.0
mp-677714,K2YbSn(PO4)3,0.0
mp-68,Sm,0.0
mp-684055,Tl7Bi3I16,2.2653999999999996
mp-684663,I,0.0
mp-684726,La39Se56,0.0
mp-684860,Sm39S56,0.0
mp-684985,Zr5I18,0.0
mp-685283,Ag13Bi15I64,0.0
mp-685586,Ag3(Bi2Br3)7,0.01429999999999998
mp-685675,Li26(B24O)3,0.0
mp-685798,Yb7Mg3Ge8,0.0
mp-685820,Sc10Mn17S32,0.0
mp-691028,Sr6La14Mg7Ti13O60,1.8064999999999998
mp-694869,Ca2YFe3(SnO6)2,0.0
mp-704908,K5CeCo2(NO2)12,0.0
mp-705397,Li3Ni2(PO4)3,0.0
mp-705398,LiFeP4O13,0.0
mp-705437,Li3Fe3P8O29,0.0
mp-705467,MnPO4,0.33510000000000006
mp-705479,SnH6Cl4O3,3.2230999999999996
mp-705522,Sr28In11,0.0
mp-705528,NaCaB5H8O13,4.884399999999999
mp-706229,Ba2La2Fe2Cu2O11,0.0
mp-7088,Ta2C,0.0
mp-7098,Np,0.0
mp-7130,ScRu3C,0.0
mp-7131,PrTe,0.0
mp-7142,OsC,0.0
mp-7143,BaPuO3,0.0
mp-7144,Sm3AlC,0.0
mp-7167,SmRh3C,0.0
mp-7168,TbPPt,0.0
mp-7169,TmPPt,0.0
mp-718,SnPd3,0.0
mp-7188,Al2Os,0.30320000000000036
mp-72,Ti,0.0
mp-721,TbCd,0.0
mp-7226,V3Ni,0.0
mp-735924,Pr16Si16N27Cl3O14,0.0
mp-743704,Ca4Y2Al7Cr2SiO24,0.47799999999999976
mp-743773,Na3Ca18Fe(PO4)14,2.2236000000000002
mp-743819,Ca10Ti8NbFeO30,1.9961000000000002
mp-755252,DyHO2,4.159000000000001
mp-756177,Li4ZrNb(TeO6)2,0.0
mp-759254,LiBi4P7O24,3.8213999999999997
mp-759291,Ba17U11O42,0.0