task_id,pretty_formula,band_gap
mp-561913,Sr2Fe2S2OF2,1.9040000000000001
mp-561926,NaNiIO6,1.6893999999999998
mp-561936,RbIn(MoO4)2,3.7308
mp-561940,Na3Co2SbO6,2.1610000000000005
mp-561949,GdBO3,2.2427
mp-561966,Rb2U(N2O7)2,1.7696
mp-561972,SrMn2(PO4)2,3.3013000000000003
mp-561974,Zr7(NO2)4,2.7922
mp-568616,Nb2Br5,0.7090000000000001
mp-568633,RbNaMo3O10,2.9355
mp-568666,RbAuI3,0.7023999999999999
mp-568690,CdBr2,2.8796
mp-568692,In4Br7,2.2604
mp-568696,SiC,1.8149000000000008
mp-569814,TiBr4,2.7939
mp-569826,K2Ge2Se5,1.8025
mp-569830,Te2PdBr6,1.318
mp-569843,MnBr2,1.5292
mp-569854,Ga3Bi5Cl12,1.8008
mp-569862,Rb4P2Se9,1.4230999999999998
mp-569869,Sr(AlCl4)2,5.5134
mp-579356,Zr(WO4)2,3.1688
mp-579400,Y10W2O21,3.0939
mp-579505,Sb2Te3MoC4(OF3)4,2.0766
mp-579542,Th(MoO4)2,3.5981
mp-579548,Rb3P(W3O10)4,3.2474
mp-579582,Fe3B7IO13,3.2665
mp-579613,Si2Mo4P6O25,1.8843
mp-579614,Y16B4C8I19,0.1993999999999998
mp-579631,V4(P2O7)3,1.7479
mp-579770,Cr3B7ClO13,2.7626000000000004
mp-579895,NiH32C8S4(NO5)2,3.2272
mp-579904,Sr4Al6CrO16,2.1943
mp-580202,PbI2,2.3956
mp-580503,V2Cd6Se5O21,2.3401
mp-580748,Re3Se4Cl,1.1639
mp-580962,RbC2I3N2,3.1541
mp-581161,VPO5,1.9628
mp-581258,ZnS,2.0381
mp-31940,LiMnPO4,3.3679
mp-31950,LiMn(PO3)4,1.7367
mp-31953,Li2MnP2O7,3.8564
mp-31964,Li2Mn(PO3)4,4.101
mp-31972,Li3Mn(PO4)2,1.0943
mp-31979,Li2Mn(PO3)4,4.1915
mp-31980,LiMn(PO3)4,0.6489
mp-540834,Ni2Hg2OF6,0.9556
mp-540838,Ni3B7IO13,2.370000000000001
mp-540846,V2MoO8,0.7757000000000001
mp-540847,Cs2LiCr(CN)6,1.7163
mp-540856,Tm8Ga3Co,0.025000000000000355
mp-540857,Yb2WO6,0.4601
mp-540858,Cu3(AsO4)2,0.05400000000000027
mp-540861,KNa3Al4(SiO4)4,3.1137
mp-540866,Na6Mg2C4SO16,3.7182
mp-540869,VP2H4O9,2.6242
mp-540905,YAlGeO5,3.8110000000000004
mp-540924,NbTeI3,0.4539
mp-540927,UPCl10,0.6319999999999999
mp-540938,Pb5(IF4)2,2.9883999999999995
mp-554847,SbP(Cl3O)2,2.2525
mp-554849,Ta4Mn11O21,2.2033
mp-554852,Y2Te5O13,2.9944999999999995
mp-554856,Na2Si2O5,4.4186
mp-554869,SrGeO3,3.3373
mp-554878,PrSbO4,1.3777999999999997
mp-554883,Al(HO)3,4.9113000000000016
mp-554889,ZnS,2.0385
mp-554896,SbXe2OF15,1.2419000000000002
mp-554899,CsAlF4,6.9718
mp-554903,TbSeClO3,4.3781
mp-555428,Sr5(ReO6)2,2.1062000000000003
mp-555433,NaYbCO3F2,0.6712
mp-555435,S4IN3Cl2,1.6235
mp-555436,S5N2(O2F)4,4.3178
mp-555438,Ba3AlF9,6.4405
mp-555443,PNF2,5.484299999999998
mp-555447,NaScB2O5,4.9199
mp-555448,Rb3Pr3(PS4)4,2.2856
mp-555451,Sr3U(Te2O7)2,1.9828000000000008
mp-555457,Te2S(O2F3)2,4.0102
mp-555462,Al(HO)3,5.0602
mp-555463,RbTh3F13,6.440099999999998
mp-555467,Sr2AlCO3F5,5.424600000000001
mp-555472,Na4Zr2(SiO4)3,4.3103
mp-555474,Sr(ClO2)2,2.3952
mp-555478,Ba(Mo3O5)2,0.6400999999999994
mp-555483,SiO2,4.7216999999999985
mp-555484,VS2Br2N3,0.7769
mp-555485,Rb2GdGa(SiO3)4,3.3463
mp-555487,SnO2,0.8384
mp-555497,SiO2,4.3008
mp-555645,CuHgSBr,0.8626
mp-558203,SiO2,5.8698
mp-558208,RbInAs2O7,2.5506
mp-558226,H2O,5.556800000000001
mp-558228,Li2MnF6,2.716
mp-558239,Rb4U5O17,1.517
mp-558248,PrTa3O9,3.1746000000000003
mp-558259,Pr3Si2S8I,2.5743
mp-558263,YH24C9N6(ClO)3,4.636900000000002
mp-558277,Ti3(BiO3)4,2.2583
mp-558279,Tl2Te3O7,2.8048
mp-558281,SrCrF4,3.6107
mp-558289,UAg2(SeO4)2,1.5089
mp-558294,Li3TaO4,4.5218
mp-558301,SiO2,5.4407999999999985
mp-558305,Rb2Ag4Pd3(NO2)12,1.7792
mp-558312,Li2O2,1.6379
mp-558314,TaBi4ClO8,1.0065999999999995
mp-558318,Rb2TbGa(SiO3)4,4.0952
mp-558323,SrBi2B2O7,2.804
mp-558326,SiO2,5.587000000000001
mp-558329,V2Se2O9,2.1685000000000003
mp-558333,Nd4Ga2S5O4,2.8838000000000004
mp-558336,Ho2O3,4.0554
mp-558338,Tl2CuAsO4,1.5066000000000002
mp-558340,Nd5As2ClO10,3.2958000000000003
mp-558350,Zn2TeBr2O3,3.2928
mp-558351,SiO2,5.5127
mp-558373,PrNb3O9,2.8485
mp-558381,PtCI2O,1.5903
mp-558382,Li2SO4,5.9904
mp-558390,RbGa2P5O16,4.6502
mp-558393,Rb2Nb3Cl7O5,2.3515
mp-558396,Rb2Te(H6O5)2,3.0155000000000003
mp-558403,P2Pb(XeF6)3,2.4778
mp-558408,Nb4Te9I4O,0.25329999999999986
mp-558431,LiCu(PO3)3,0.6768999999999998
mp-558441,NaZr2VF11,2.1817
mp-558446,AgHgSI,1.1391000000000002
mp-558463,NaTeH12(CO)3,2.0122
mp-558481,ZnGaNO,0.31420000000000003
mp-558490,Tb3Se2ClO8,4.0674
mp-558495,SrFe2(PO4)2,3.6598
mp-558514,RbZrCdF7,5.1017
mp-558516,TmSeClO3,4.336799999999998
mp-558523,PAuClF3,3.5272
mp-558533,Nd3U(ClO2)3,1.4115000000000002
mp-558534,Tm3B5O12,5.3919
mp-558536,RbCdAuS2,1.9324
mp-558553,Sr4Ti5(Si2O11)2,1.9373
mp-558564,SiO2,5.5113
mp-558568,Rb2CdSiO4,2.4876
mp-558569,SiO2,5.6388
mp-558571,Sc2Te5O13,2.9509
mp-558573,Y2O3,3.955200000000001
mp-558576,ReSb(OF4)2,3.7699
mp-558579,TlHCO2,3.5008
mp-558580,Na2Zn(SiO3)2,3.6116
mp-558582,In(PO3)3,4.3721999999999985
mp-559760,ScIO,1.9708999999999997
mp-559764,Nd3Si2ClO8,4.3816
mp-559767,LiAsO3,2.9408
mp-559768,La2Ti2O7,2.8424
mp-559770,Nd4Ga2O9,3.6013
mp-559779,Nd3SiS6Cl,2.5568000000000004
mp-559788,RhC2ClO2,1.3044
mp-559792,Nd2As6Xe5F46,2.6927000000000003
mp-559795,Rb7NaZn2O6,1.5706
mp-559812,Rb3CrF7,0.7833
mp-559832,Hg3(SBr)2,1.609
mp-562012,K2Th(MoO4)3,2.84
mp-562018,CSNF5,4.302
mp-562054,XeO3,2.1312
mp-562065,PO2,4.5682
mp-562100,NbS3,0.3977000000000004
mp-562133,Rb2Cr2O7,2.7024
mp-562182,ZnSiO3,3.4371000000000005
mp-562207,VCdAgO4,1.8416
mp-562260,CaSO4,5.953899999999999
mp-562321,SrCr2O4,2.7927000000000004
mp-562338,USeO6,2.0194
mp-568735,SiC,1.9979999999999996
mp-568742,HgI2,1.3751
mp-568759,NaNd4I7N2,2.7212
mp-568762,Na4Ge2Se5,1.963
mp-568779,Tb3CuSiSe7,1.4882
mp-568796,RbYbI3,3.6053
mp-568801,Pr3CuSiSe7,1.3983999999999996
mp-568802,KBi(PSe3)2,1.7577
mp-569883,Rb2(PSe2)3,1.4027999999999998
mp-569910,SrMo2(PO4)4,2.3566
mp-569921,Nb3H12C4NCl9,0.4908
mp-569932,Tl7(Ag18Te11)2,0.1921999999999997
mp-569960,ZnBr2,3.2848
mp-569962,Rb2Tb10C4Br19,0.1554000000000002
mp-569970,ZrHg3(SeBr3)2,1.9368
mp-570005,SbBr3,3.113
mp-581265,NiAs2S6N4(OF2)8,3.0584
mp-581376,Tl3Ag3(SbS3)2,1.4758
mp-581412,ZnS,2.0264999999999995
mp-581413,Ta2Hg2F11,0.9341
mp-581425,ZnS,2.0194
mp-581449,Re(TeCl6)2,1.0373
mp-581453,Rb6U5V2O23,1.7618999999999998
mp-581476,ZnS,2.0243
mp-581488,SbTe7SXeCl(OF4)9,1.4909
mp-581586,Tl8Sb21As19(PbS17)4,1.4184
mp-581601,ZnS,2.0265
mp-581602,ZnS,2.0385
mp-581642,ZrMn2Ag4(MoO4)6,2.1388
mp-581644,Y2Si2O7,4.566000000000002
mp-581833,RbN3,3.7529
mp-581855,Sr21(Mn2Sb9)2,0.2120000000000002
mp-581868,NaY(IO3)4,3.3072000000000004
mp-581875,Ta3Bi7O18,2.3299000000000003
mp-1060502,AgCl,0.5962000000000001
mp-1060967,AgBr,0.12139999999999995
mp-1096984,H2CO,5.9566
mp-32017,Li3Mn3(PO4)4,0.5166999999999999
mp-32022,LiMnP2O7,1.7018
mp-32024,Li3Mn2(PO4)3,0.9513
mp-3203,NdTaO4,3.9418
mp-32040,Tb4Mo4O11,0.12380000000000012
mp-32041,NaMoPO6,2.7291
mp-32055,Mo2(PO4)3,0.7733999999999999
mp-540939,Ti(TlS)4,2.4819
mp-540940,Ti(TlSe)4,2.1544
mp-540943,SeBr,1.7372999999999998
mp-540977,Bi5IO7,2.4210000000000003
mp-540981,CsHSO4,5.2778
mp-540982,VP3(HO5)2,2.2075000000000005
mp-540993,NaMo6Cl13,2.3917
mp-540995,Rb5Nb3OF18,3.9867
mp-541004,YbCu(WO4)2,0.07479999999999976
mp-545820,SnO,0.5353999999999992
mp-546279,ScBrO,3.236
mp-552963,Pr2Ti2S2O5,0.8414999999999995
mp-554018,Mg3BeAl8O16,5.240499999999999
mp-554141,Ca3SiO5,3.3125000000000004
mp-554926,Sr2VO4,1.5283999999999995
mp-555507,Sr10Al2ClF25,6.4233
mp-555512,RbCO2,4.2456999999999985
mp-555521,SiO2,5.5742
mp-555526,RbAg(NO3)2,2.4757
mp-555527,Sm3Si2S8Br,2.6145
mp-555543,ZnS,2.0250000000000004
mp-555544,SiO2,4.3207
mp-555552,KNaSO4,5.0709
mp-555556,SiO2,5.6138
mp-555558,Co2SiO4,2.181
mp-555559,Sm3NbSe3O4,1.6340000000000003
mp-555562,LiIO3,3.5575
mp-557062,ZnS,2.0314
mp-557418,ZnS,2.0311
mp-557685,NbIO2,1.0522
mp-558114,Sr4NbAlO8,2.9538
mp-558590,U2NiO6,0.3891
mp-558592,Sb8Br2O11,2.6698
mp-558601,BaWO4,3.6521
mp-558616,SrZnP2O7,4.4518
mp-558617,Pr4S3N2,1.5229
mp-558625,SrZr(PO4)2,4.1079
mp-558636,CaAl2O4,4.9819
mp-558637,AgTeO3,1.6662000000000003
mp-558642,Sr3Bi(ClO)3,4.0001
mp-558658,Y2C(NO)2,3.9362
mp-558667,S3N3ClO2,2.3052
mp-558669,SrAl2B2O7,4.686
mp-558672,Si3Bi2O9,3.5103
mp-558681,PClOF2,5.4542
mp-558690,ZnB4O7,5.374300000000002
mp-558692,Sb2ClO2F11,1.8464
mp-558697,Rb3U2Ge2O11,0.19459999999999988
mp-558703,Al3Pb5F19,5.1203
mp-558706,RbGa3S5,2.5212
mp-558708,Nd2Cu(GeO4)2,0.3746
mp-558713,LiAlSiO4,4.6935
mp-558716,WSNCl5,1.0186
mp-558717,LiUAsO6,2.2644
mp-558733,SiO2,5.2698
mp-558739,RbSb2Au3S5,0.7259000000000002
mp-558743,WN3F5,3.2908
mp-558747,TiTlPS5,1.1762
mp-558748,Sc2O3,3.4806
mp-558749,RbMnF3,2.9422
mp-558754,Sb4OsC6(O3F11)2,4.434
mp-558775,Al3Pb5F19,5.0114
mp-558777,KNd(SO4)2,5.4174
mp-558781,ScTaO4,4.0258
mp-558797,VF5,2.9917
mp-558815,Rb2LiVS4,1.6476
mp-558838,NiPtF6,2.0413
mp-558842,Sm7BP2O17,4.7886000000000015
mp-558844,SNClO,4.1058
mp-558845,PH10C3N2O4F,5.1415
mp-558865,SeS4(NCl)3,0.9559999999999996
mp-558883,Y3Si2ClO8,4.5652
mp-558888,PS2N3Cl2(OF)2,4.8031000000000015
mp-558890,BaLi(B3O5)3,5.6720000000000015
mp-558893,SbCSF11,4.4303
mp-558920,NaNbO3,2.4098
mp-558927,SrFeF5,3.7149
mp-558930,Zn(PO3)2,4.7071
mp-559848,Li4SiO4,4.9532
mp-559860,SiO2,4.5099
mp-559870,V3P4O15,1.9616
mp-559871,AlF3,7.5154
mp-559879,PS2N(Cl3O2)2,2.6486
mp-559894,Sb2Te2O9,2.615
mp-559897,OsO2F3,0.5744
mp-559902,TeC4(BrF3)2,2.5884
mp-559908,LiTa3O8,2.6101
mp-559911,V4S9Br4,0.6574
mp-559917,P2NCl5O,3.7195
mp-559923,Nb(PS4)2,1.2752
mp-559927,Tb2Cu(BO2)8,0.8675000000000002
mp-559928,SiO2,5.4895
mp-559931,VF3,1.5497999999999998
mp-561320,PbS,1.6709
mp-562473,LiSn2(PO4)3,3.1282
mp-562480,TlIn5S7,0.7322999999999995
mp-562490,SiO2,5.5997
mp-562501,SiP3RuO11,0.005399999999999849
mp-562517,CaMg(SiO3)2,4.6554
mp-562537,Ta2Ni3S8,0.5258000000000003
mp-562572,CsU2O6,0.041700000000000514
mp-562610,SnO2,0.4320000000000004
mp-562747,SrTb2Fe2O7,1.5329000000000002
mp-562815,Cs4CO4,1.8413
mp-562977,RbNbS2O9,2.7769999999999997
mp-563013,Yb3CeS6,0.3475999999999999
mp-565195,SrCrSn(PO4)3,3.0852999999999997
mp-568722,CdBr2,2.8587
mp-568846,TaBr5,2.0283
mp-568857,RbCuCl3,0.3286
mp-568867,Si3N4,2.359300000000001
mp-568883,Pr3SiSe2N3,2.0836
mp-569456,TiHg6As4Br7,0.0979000000000001
mp-569468,CdI2,2.4319
mp-569611,CdI2,2.38
mp-570019,CdI2,2.3549
mp-570021,Ti6Tl5AgSe27,0.6648000000000001
mp-570045,Sm3CuSiSe7,1.3713999999999995
mp-570054,CdI2,2.3541
mp-570061,Nd3NCl6,3.3706
mp-570076,Tl2CdSnTe4,0.3681000000000001
mp-570081,CuI,1.6338
mp-570082,CdI2,2.3629
mp-570089,CdI2,2.3953
mp-570097,Sr(Li2P)2,0.9758999999999998
mp-578912,V2B(PO4)3,1.9429000000000003
mp-582034,SiC,1.6221999999999994
mp-582084,CdI2,2.3746
mp-582108,Sr21(Cd2Bi9)2,0.17779999999999996
mp-582259,Li7VN4,2.1867
mp-582444,Os(SeCl6)2,0.0736
mp-582585,SrCu2(PO4)2,0.0010999999999996568
mp-582646,Tl2Ni4P4O15,3.3299
mp-582648,RbRe3Br10,0.9908
mp-582657,Ti4Te9I4O,0.39780000000000015
mp-582680,ZnS,2.0289
mp-582753,Tl2Te,0.6448
mvc-11541,FeO2,0.9529
mvc-11561,MnO2,1.6861
mp-1004762,LiMn4O8,0.0019000000000000128
mp-10074,GeSe2,1.5188
mp-1009755,Ca2Ge,0.5756000000000001
mp-1016108,TiZnN2,2.342
mp-1022808,Ba2NbFeO6,1.3500000000000003
mp-1025276,Sm2AlNO3,1.8088
mp-1029262,VZn2N3,1.5316
mp-1029506,CaSiN2,2.1951
mp-10333,Pr(ZnP)3,0.0389999999999997
mp-1079418,LiH2N,3.8861
mp-1079583,Rb2NaAlF6,6.7895
mp-1099591,NaVO3,0.2251999999999996
mp-13032,MgS,3.3692
mp-13099,YN,2.075
mp-13551,ScTeO3F,3.3208
mp-14260,ZnAg(PO3)3,3.0283
mp-17237,Gd3RuO7,0.3637000000000001
mp-18829,Sr2ZnMoO6,2.369
mp-18831,Y2Mn2O7,0.8710999999999998
mp-1888,RbGe,1.015
mp-18915,LiCoPO4,2.4571
mp-19000,VPO5,1.8518000000000003
mp-19128,CoO,0.7120000000000002
mp-19151,BaYCo4O7,0.19620000000000012
mp-19282,Sr2ZnWO6,3.4019999999999997
mp-19580,Ti2Ni(PO5)2,2.9847
mp-20329,InAgO2,0.2413000000000003
mp-22428,SrCeO3,2.2876
mp-22914,CuCl,0.5611999999999999
mp-23290,PtCl2,1.8227
mp-23291,PbCl2,3.7939
mp-23764,Mg3Si2H4O9,4.2447
mp-23929,ZnH8(NO5)2,3.4534
mp-25545,MnO2,1.5739
mp-27580,Zn3(AsO3)2,3.5393
mp-28157,P(HO)3,7.0934
mp-28601,NbBr5,1.5583
mp-30299,RbAsO2,3.8821
mp-3379,K2SbF5,4.6778
mp-36053,SiPN3,3.7652
mp-36216,Ag2S,1.0844
mp-38220,RbNO3,3.0132
mp-4825,Li7VN4,2.84
mp-504593,Pb2CCl2O3,3.2252
mp-541908,KSbF6,4.9633
mp-554236,Ca5P3ClO12,5.3001000000000005
mp-554906,Zn2BiPO6,2.8035
mp-555808,Zn8B3H3O14,2.4989
mp-558237,NaZnPO4,3.8292
mp-559354,NaNbO3,1.8833
mp-559663,SrLiNiF6,2.3098
mp-559829,SiO2,6.106
mp-560358,Zr2P2O9,4.1039
mp-562613,P2O5,5.5409000000000015
mp-567014,Rb2Te(WO4)3,2.9664
mp-568116,Lu2(CN2)3,3.7119
mp-568208,IrCl3,1.8275
mp-568439,KNa(BH4)2,6.3935
mp-568612,SnHg6(P2Cl3)2,2.2093000000000003
mp-569653,SnPCl9,2.4621
mp-570259,MgCl2,5.5713
mp-571225,CdI2,2.4015000000000004
mp-571519,CdI2,2.3711
mp-571555,InCl,2.1996
mp-5874,TlAgTe,0.6385000000000005
mp-6070,AgCNO,2.3492
mp-623064,ReN2(OF4)2,0.1825
mp-626075,MnHO2,0.5112000000000001
mp-632927,CaUO4,1.9288
mp-641541,Ge3N4,1.4131999999999998
mp-644272,HCN,6.5817999999999985
mp-650841,GaBr2,3.3765
mp-6591,SrLiAlF6,7.3154
mp-699498,U2CuP2(HO)24,0.8594999999999999
mp-699888,Na2TiFe(PO4)3,2.4985
mp-733876,P2H4RhO9,0.0002000000000000057
mp-754781,Ga3NO3,1.6791
mp-755541,Cs3YO3,2.2607
mp-758415,LiCuPO4,0.42749999999999977
mp-761314,Ga2NiO4,1.4346
mp-761327,LiFe2OF3,0.5070000000000001
mp-762696,LiFeSiO4,1.7914
mp-763481,Nb2CoO6,1.9055
mp-763901,NaVO3,3.2064000000000004
mp-764130,V6O7F5,0.7526000000000002
mp-764881,V4O7F5,1.5721
mp-767548,Ti4(Ni5O8)3,1.2512999999999996
mp-768573,Lu3AlO6,4.214
mp-768812,LiBiB2O5,3.0193
mp-769025,K2Mg2O3,2.923
mp-769631,Li2Mn3NiO8,0.5476000000000001
mp-769685,Li2NiBO4,1.2977
mp-771763,Mg2Mn3O8,1.1172000000000002
mp-772130,Li2Ti3NiO8,1.7219999999999995
mp-772343,LiVNiO4,2.8561
mp-773575,LiMnF3,3.6033
mp-773675,FePO4,1.4633
mp-774242,LiTaWO6,3.1938
mp-774336,Li3BiS3,1.9514
mp-776657,Li2Fe3F8,3.0159
mp-777332,Li2MnF6,2.922
mp-778615,V6O7F5,0.44200000000000017
mp-779217,Tb2Zr2O7,2.5376
mp-779926,Fe3(OF2)2,0.9337999999999996
mp-781897,Gd3NbO7,2.2338
mp-8377,TeO2,3.0604
mp-849459,Li2FeO2F,1.8154
mp-850474,Ni(PO3)3,0.0222
mp-868117,NaCoO2,0.8346999999999998
mp-9380,SrGe4O9,3.0645
mvc-11655,MgMn4O8,0.16349999999999998
mvc-12547,MgCr2O4,2.6976
mvc-14222,ZnFeF5,3.0264
mvc-3750,MgMoF5,4.0405000000000015
mvc-4030,Ti3Al2(SiO4)3,0.6799999999999997
mvc-4247,Zn3Ag2(GeO4)3,0.38249999999999984
mvc-4436,Zn3Co2(GeO4)3,2.3119