task_id,composition,band_gap
mp-1227940,BaGaSi,0.0
mp-1228005,BaGaSn,0.0
mp-1214665,BaGd(CoO3)2,0.0
mp-1079551,BaGdCo2O5,0.0
mp-1214529,BaGdCuBO5,0.0
mp-1206575,BaGdFeCuO5,0.0
mp-1730,BaGe,0.0
mp-1198185,BaGe2Au5,0.0
mp-631556,BaGe2B,0.0
mp-1078234,BaGe3,0.0
mp-1069708,BaGe3Ir,0.0
mp-1068447,BaGe3Pd,0.0
mp-1070247,BaGe3Rh,0.0
mp-1095284,BaGe5,0.0
mp-1103747,BaGe6,0.0
mp-1227958,BaGeAu3,0.0
mp-22151,BaGePt,0.0
mp-642649,BaH2O3,0.0
mp-1214636,BaH2S5O6,3.0060000000000002
mp-631569,BaHf2As,0.0
mp-631500,BaHfMg2,0.0
mp-1016652,BaHfMg6,0.0
mp-631521,BaHfMo,0.0
mp-2197,BaHg,0.0
mp-1600,BaHg11,0.0
mp-11267,BaHg2,0.0
mp-1183299,BaHg2Bi,0.0
mp-864618,BaHg2Pb,0.0
mp-1093549,BaHg2Sb,0.0
mp-867770,BaHg3,0.0
mp-1193593,BaHg6,0.0
mp-1228081,BaHgPb,0.0
mp-1079686,BaHo(CoO3)2,0.0
mp-17878,BaHo2CuO5,0.0
mp-31509,BaIn,0.0
mp-1147688,BaIn(Cu3O4)2,0.0
mp-22141,BaIn2,0.0
mp-1025520,BaIn2Pd,0.0
mp-21032,BaIn2Pt,0.0
mp-11078,BaIn2Rh,0.0
mp-1227995,BaIn3Pt,0.0
mp-22687,BaIn4,0.0
mp-639150,BaIn4Ir,0.0
mp-1095357,BaIn9Ir2,0.0
mp-25737,BaInCo4O7,0.0
mp-1214344,BaInFe4O7,0.0
mp-1228055,BaInGa,0.0
mp-1227944,BaInGe,0.0
mp-1095951,BaInHg2,0.0
mp-1183288,BaInO3,0.0
mp-13545,BaIrF6,0.0
mp-542897,BaIrO3,0.0
mp-1227951,BaLa(CoO3)2,0.0
mp-1227910,BaLa(FeO3)2,0.0
mp-1227960,BaLa2(CoO3)3,0.0
mp-18414,BaLa2BeO5,3.8870000000000013
mp-22423,BaLa2CoS5,0.0
mp-16531,BaLa2FeS5,0.0
mp-690460,BaLa2Mn3O9,0.0
mp-1183311,BaLa3,0.0
mp-1227929,BaLa3(CoO3)4,0.0
mp-1228047,BaLa3Mn4O12,0.0
mp-1228419,BaLa4(CoO3)5,0.0
mp-558557,BaLa4Cu5O12,0.0
mp-1228080,BaLa4Mn5O15,0.0
mp-1227841,BaLaB12,0.0
mp-1206732,BaLaCo2O5,0.0
mp-1228112,BaLaCoIrO6,0.0
mp-1227876,BaLaCoSbO6,0.0
mp-1229299,BaLaCrMoO6,0.0
mp-14970,BaLaCuBO5,0.0
mp-41057,BaLaCuRuO6,0.0
mp-705604,BaLaFe2Cu2O11,0.0
mp-30111,BaLaI4,0.0
mp-1021159,BaLaMg6,0.0
mp-39249,BaLaMgRuO6,0.2475999999999993
mp-1227844,BaLaMn2O6,0.0
mp-697820,BaLaMnInO6,0.0
mp-40356,BaLaMnMoO6,0.0
mp-690567,BaLaMnRuO6,0.0
mp-1227851,BaLaNbCrO6,0.0
mp-1227936,BaLaNdMn3O9,0.0
mp-622618,BaLaNiRuO6,0.0
mp-1227919,BaLaPrMn3O9,0.0
mp-1078225,BaLaSi2,0.0
mp-1227930,BaLaSmMn3O9,0.0
mp-695277,BaLaTiCuO6,0.0
mp-569396,BaLi2(MgGe)2,0.0
mp-570771,BaLi2(MgSi)2,0.0
mp-1019547,BaLi2Mg(PO4)2,5.638199999999999
mp-27454,BaLi2Si,0.0
mp-1096003,BaLi2Tl,0.0
mp-10250,BaLiF3,6.564299999999999
mp-13140,BaLiGe2,0.0
mp-1099308,BaLiMg6,0.0
mp-1183284,BaLiO3,0.0
mp-1214370,BaLiRu5O11,0.0
mp-9950,BaLiSi,0.0
mp-505268,BaLu2CuO5,0.0
mp-1103986,BaLuFe4O7,0.0
mp-611393,BaLuFeCuO5,0.0
mp-1183308,BaMg,0.0
mp-1046961,BaMg(AgO2)4,0.0
mp-1044533,BaMg(CoO2)4,0.0
mp-1044540,BaMg(MoO2)4,0.0
mp-1046897,BaMg(SbO2)4,0.0
mp-1046957,BaMg(SnO2)4,0.0
mp-1044474,BaMg(WO2)4,0.0
mp-1099090,BaMg14Fe,0.0
mp-1099078,BaMg14Ni,0.0
mp-1935,BaMg2,0.0
mp-1228514,BaMg2V6(Cu4O13)2,0.0
mp-1078462,BaMg4Ge3,0.0
mp-1079433,BaMg4Si3,0.0
mp-1023362,BaMg6Al,0.0
mp-1016647,BaMg6B,0.0
mp-1016659,BaMg6C,0.0
mp-1022221,BaMg6Co,0.0
mp-1022107,BaMg6Cu,0.0
mp-1022387,BaMg6Fe,0.0
mp-1100167,BaMg6Ga,0.0
mp-1016639,BaMg6Mo,0.0
mp-1016650,BaMg6Nb,0.0
mp-1022026,BaMg6Ni,0.0
mp-1099335,BaMg6Si,0.0
mp-1099297,BaMg6Sn,0.0
mp-1099296,BaMg6Ti,0.0
mp-1016559,BaMg6W,0.0
mp-1022622,BaMg6Zn,0.0
mp-1022514,BaMg6Zr,0.0
mp-1041248,BaMgBiF7,5.342099999999999
mp-1044283,BaMgCr4O8,0.0
mp-754515,BaMgGe,0.0
mp-1227881,BaMgIn3,0.0
mp-1044300,BaMgMn4O8,0.0
mp-631498,BaMgOs2,0.0
mp-1018653,BaMgPb,0.0
mp-1041269,BaMgSbF7,4.816199999999999
mp-9934,BaMgSi,0.0
mp-1018654,BaMgSn,0.0
mp-1041291,BaMgSnF7,0.0
mp-1046916,BaMgTi4O8,0.0
mp-1194459,BaMn28,0.0
mp-1095090,BaMn2O5,0.0
mp-1228364,BaMn2Ru4O11,0.0
mp-1046464,BaMn2TlO6,0.0
mp-1048458,BaMn4AlO7,0.0
mp-1044381,BaMn4ZnO8,0.0
mp-1228224,BaMn5O11,0.0
mp-1228093,BaMn6O12,0.0
mp-1228782,BaMn8O16,0.0
mp-1042474,BaMnAlCuO5,0.0
mp-1079799,BaMnBi2,0.0
mp-622203,BaMnGaF7,3.624
mp-20639,BaMnGe,0.0
mp-1029775,BaMnN2,0.0
mp-1189956,BaMnOF5,0.0
mp-29206,BaMnSb2,0.0
mp-672226,BaMnSi2,0.0
mp-1047907,BaMnZnF7,1.523
mp-555623,BaMo2(PO4)3,0.0
mp-1096841,BaMoP2,0.0
mp-1057758,BaN,0.0
mp-1001,BaN2,0.0
mp-1227868,BaNa(FeAs)4,0.0
mp-1183312,BaNa2Pb,0.0
mp-1183338,BaNa2Sn,0.0
mp-1214424,BaNa3(PO4)2,0.0
mp-1214578,BaNa4Ti2(Si2O5)6,0.0
mp-1093620,BaNaAu2,0.0
mp-1147772,BaNaCuBrO2,0.0
mp-1232325,BaNaCuClO2,0.0
mp-867147,BaNaHg2,0.0
mp-695982,BaNaP3(HO2)6,5.144299999999999
mp-1199379,BaNaPSO12,0.0
mp-962067,BaNaSn,0.0
mp-1183318,BaNaTl2,0.0
mp-1214445,BaNaY2(PO4)2,0.0
mp-561234,BaNaZr2F11,5.699199999999999
mp-1227948,BaNb4O14,0.0
mp-761128,BaNb5O8,0.0
mp-555620,BaNb7(P2O11)3,0.0
mp-505078,BaNb7O9,0.0
mp-3020,BaNbO3,0.0
mp-35143,BaNbS3,0.0
mp-631491,BaNbTc2,0.0
mp-984827,BaNd,0.0
mp-1079144,BaNd(CoO3)2,0.0
mp-1227836,BaNd(FeO3)2,0.0
mp-6080,BaNd2CoS5,0.0
mp-16533,BaNd2FeS5,0.0
mp-16456,BaNd2MnS5,0.0
mp-24853,BaNdCo2O5,0.0
mp-10350,BaNdCuBO5,0.0
mp-1227838,BaNdFeCoO6,0.0
mp-561634,BaNdMn2O5,0.0
mp-1227840,BaNdMnCoO5,0.0
mp-1227874,BaNdMnCoO6,0.0
mp-754307,BaNdO3,0.0
mp-540991,BaNi9As5,0.0
mp-3202,BaNi9P5,0.0
mp-1096852,BaNiCl3,0.0
mp-1147557,BaNiIO6,0.0
mp-21653,BaNiN,0.0
mp-7486,BaNiS2,0.0
mp-11879,BaNiSn3,0.0
mp-1191675,BaNp(PO4)2,0.23399999999999999
mp-8558,BaNpO3,0.0
mp-1182404,BaO10,0.0
mp-1182327,BaO4,0.0
mp-1214539,BaO5,0.0
mp-1214372,BaOsO2,0.0
mp-781625,BaOsO3,0.0
mp-985439,BaPAu,0.0
mp-9078,BaPIr,0.0
mp-1204995,BaPO4,0.0
mp-21236,BaPPt,0.0
mp-8557,BaPaO3,0.0
mp-20136,BaPb,0.0
mp-21446,BaPb3,0.0
mp-1008505,BaPd,0.02679999999999972
mp-1205352,BaPd(SeO3)2,1.529
mp-1687,BaPd2,0.0
mp-2606,BaPd5,0.0
mp-1178510,BaPdO3,0.0
mp-1183326,BaPm3,0.0
mp-24856,BaPr(CoO3)2,0.0
mp-16451,BaPr2CoS5,0.0
mp-10912,BaPr2FeS5,0.0
mp-1227914,BaPr2Mn3O9,0.0
mp-1227911,BaPrCu2O5,0.0
mp-1206136,BaPrFeCuO5,0.0
mp-557036,BaPrMn2O5,0.0
mp-31498,BaPt,0.0
mp-747,BaPt2,0.0
mp-1214338,BaPt3O4,0.0
mp-1183290,BaPtO3,0.0
mp-505025,BaPuO3,0.0
mp-631703,BaRe2Sn,0.0
mp-1183358,BaRe3,0.0
mp-1194628,BaRe3Se4O7,0.0
mp-1183298,BaReO3,0.0
mp-568430,BaRh2,0.0
mp-7660,BaRhF6,0.0
mp-7685,BaRhO3,0.0
mp-5773,BaRuO3,0.0
mp-3164,BaSO4,5.950699999999999
mp-2196,BaSb2,0.0
mp-9768,BaSb2Pd,0.0
mp-6950,BaSb3,0.0
mp-568895,BaSbAu,0.0
mp-545500,BaSbClO2,2.881
mp-8606,BaSbPt,0.0
mp-1214365,BaSc6Ni4O15,0.0
mp-631492,BaScIr,0.0
mp-1183289,BaScO3,0.0
mp-1214345,BaSi12Pt5,0.0
mp-30185,BaSi23,0.0
mp-1070137,BaSi3Pd,0.0
mp-1069809,BaSi3Pt,0.0
mp-1480,BaSi6,0.0
mp-1227729,BaSiAu,0.0
mp-631544,BaSiB,0.0
mp-1102609,BaSiPd,0.0
mp-1101912,BaSiPt,0.0
mp-631504,BaSiTc2,0.0
mp-1188886,BaSm(CoO3)2,0.0
mp-21568,BaSm2CuO5,0.0
mp-16534,BaSm2FeS5,0.0
mp-1183309,BaSm3,0.0
mp-1227751,BaSmCoCuO6,0.0
mp-1214336,BaSmCuBO5,0.0
mp-1214324,BaSmFeCuO5,0.0
mp-872,BaSn,0.0
mp-567510,BaSn2,0.0
mp-1227803,BaSn2Bi,0.0
mp-1068048,BaSn3Au,0.0
mp-11269,BaSn3Pd,0.0
mp-30433,BaSn3Pt,0.0
mp-571353,BaSn5,0.0
mp-1227725,BaSr,0.0
mp-1205807,BaSr(CoO3)2,0.0
mp-1206538,BaSr(CuO2)2,0.0
mp-1227735,BaSr(FeO3)2,0.0
mp-1227741,BaSr(MoO3)2,0.0
mp-1183321,BaSr2Ca,0.0
mp-1183392,BaSr2Eu,0.0
mp-1019558,BaSr2Mg(SiO4)2,4.759
mp-1227824,BaSr2Np,0.0
mp-1183335,BaSr3,0.0
mp-1076898,BaSr3Co2(CuO5)2,0.0
mp-1076528,BaSr3Co2(CuO6)2,0.0
mp-1228284,BaSr3Cu8(BO3)8,0.0
mp-1227694,BaSr3Pd2(OF)4,0.0
mp-1227728,BaSr3Yb2(ReO6)2,0.0
mp-1227650,BaSr4,0.0
mp-1227731,BaSr4(FeO2)5,0.0
mp-1227727,BaSr4(FeO3)5,0.0
mp-1227710,BaSr4Ti5O15,1.721
mp-1227908,BaSr6Fe3Bi3O16,0.0
mp-1099685,BaSr7(FeO3)8,0.0
mp-1099990,BaSr7Co4(CuO5)4,0.0
mp-1076054,BaSr7Co4(CuO6)4,0.0
mp-1075982,BaSr7Co5(CuO8)3,0.0
mp-1100068,BaSr7Co5Cu3O20,0.0
mp-1076681,BaSr7Co6(CuO12)2,0.0
mp-1099862,BaSr7Fe6(CoO10)2,0.0
mp-1099936,BaSr7Fe6(CoO12)2,0.0
mp-1076892,BaSr7Fe7CoO20,0.0
mp-1075935,BaSr7Fe7CoO24,0.0
mp-1076181,BaSr7Mn2(Fe3O10)2,0.0
mp-1076408,BaSr7Mn2(FeO4)6,0.0
mp-1076473,BaSr7MnFe7O20,0.0
mp-1076592,BaSr7MnFe7O24,0.0
mp-1076493,BaSr7Ti5Mn3O20,0.0
mp-1099624,BaSr7Ti5Mn3O24,0.0
mp-1076196,BaSr7Ti6Mn2O20,0.0
mp-1075988,BaSr7Ti6Mn2O24,0.0
mp-1076193,BaSr7Ti7MnO20,0.0
mp-1099682,BaSr7Ti8O20,0.0
mp-1227989,BaSrAl20(CuO17)2,0.0
mp-1214332,BaSrBi3,0.0
mp-1227676,BaSrCoWO6,0.0
mp-1227765,BaSrErCu3O7,0.0
mp-1183344,BaSrEu2,0.0
mp-1227782,BaSrEuCu3O7,0.0
mp-1227665,BaSrGa4,0.0
mp-1183305,BaSrHg2,0.0
mp-1096037,BaSrIn2,0.0
mp-1093634,BaSrMg2,0.21820000000000012
mp-1038708,BaSrMg30O32,3.8160000000000003
mp-1227306,BaSrN,0.0
mp-1227498,BaSrNdCu3O7,0.0
mp-1227445,BaSrNdTlCu2O7,0.0
mp-1227928,BaSrPb6,0.0
mp-1227333,BaSrPd(OF)2,0.0
mp-1227458,BaSrPrCu3O7,0.0
mp-1227431,BaSrSm(CuO2)3,0.0
mp-1227474,BaSrSmCu3O7,0.0
mp-1183386,BaSrTl2,0.0
mp-1227433,BaSrY(CuO2)4,0.0
mp-1227606,BaSrYTlCu2O7,0.0
mp-980191,BaSrYb2,0.0
mp-1227369,BaSrYbReO6,0.0
mp-1189316,BaTa4O14,0.0
mp-631570,BaTaB,0.0
mp-1042208,BaTaCuO5,0.0
mp-754678,BaTaO3,0.0
mp-4001,BaTaS3,0.0
mp-1078588,BaTaSe3,0.0
mp-565444,BaTb2Mn2O7,0.0
mp-1214316,BaTbCuBO5,0.0
mp-622591,BaTbF6,0.0
mp-565720,BaTbMn2O6,0.0
mp-20129,BaTbO3,0.0
mp-555174,BaTcO3,0.0
mp-1095218,BaThTe4,0.0
mp-766314,BaTi10O20,0.0
mp-19502,BaTi18Mn3O38,0.0
mp-17997,BaTi2(P2O7)2,0.0
mp-1018735,BaTi2As2O,0.0
mp-1070808,BaTi2Bi2O,0.0
mp-1070806,BaTi2Sb2O,0.0
mp-1048072,BaTi2TlO6,0.0
mp-1046922,BaTi4ZnO8,0.0
mp-1227853,BaTi6O11,0.0
mp-757206,BaTi6O12,0.0
mp-757266,BaTi7O14,0.0
mp-759489,BaTi8O16,0.0
mp-1227378,BaTiMnBiO6,0.0
mp-1029374,BaTiN2,0.0
mp-7073,BaTiS3,0.0
mp-1079893,BaTiSe3,0.0
mp-1048100,BaTl(BiO3)2,0.0
mp-1046815,BaTl(CoO3)2,0.0
mp-1047046,BaTl(MoO3)2,0.0
mp-1046932,BaTl(NiO3)2,0.0
mp-1048032,BaTl(SbO3)2,0.0
mp-1048083,BaTl(SnO3)2,0.0
mp-1046939,BaTl(WO3)2,0.0
mp-30434,BaTl2,0.0
mp-1091391,BaTl4,0.0
mvc-11834,BaTlCuO4,0.0
mp-865984,BaTlHg2,0.0
mp-1183393,BaTlO3,0.0
mp-1046784,BaTlV2O6,0.0
mp-22202,BaTm2CuO5,0.0
mp-1103591,BaTmFe4O7,0.0
mp-1205946,BaTmFeCuO5,0.0
mp-1183394,BaTmO3,0.0
mp-1202924,BaU2(AsO11)2,0.0
mp-1195370,BaU2Se5,0.0
mp-1105536,BaU2Te5,0.0
mp-35730,BaUO3,0.0
mp-3601,BaUS3,0.0
mp-1095338,BaUTe4,0.0
mp-1182505,BaV2(PO7)2,0.0
mp-1041271,BaV4O8,0.0
mp-767994,BaV8O16,0.0
mp-1017465,BaVO3,0.0
mp-3451,BaVS3,0.0
mp-1227466,BaVSe2S,0.0
mp-676597,BaVSe3,0.0
mp-1048515,BaW4O7,0.0
mp-690123,BaW6O19,0.0
mp-1047945,BaWF7,3.276
mp-1214266,BaWO2,0.0
mp-1183395,BaWO3,0.0
mp-754116,BaY2Br8,4.092499999999999
mp-542733,BaY2CuO5,0.0
mp-1182125,BaYCo2O5,0.0
mp-1042475,BaYCrCuO5,0.0
mp-1042162,BaYCu2O5,0.0
mp-1048115,BaYCu4O7,0.0
mp-1042153,BaYCuAgO5,0.0
mp-1042214,BaYCuBiO5,0.0
mp-1042500,BaYCuMoO5,0.0
mp-1042151,BaYCuSbO5,0.0
mp-1042137,BaYCuSnO5,0.0
mp-1042479,BaYCuWO5,0.0
mp-1035885,BaYMg14O16,0.0
mp-1099269,BaYMg6,0.0
mp-1182186,BaYMn2O5,0.0
mp-565380,BaYMn2O6,0.0
mp-1048366,BaYMn4O7,0.0
mp-1042473,BaYMnCuO5,0.0
mp-1048406,BaYNi4O7,0.0
mp-631495,BaYSc,0.0
mp-1048164,BaYSn4O7,0.0
mp-1048118,BaYTi4O7,0.0
mp-1048392,BaYV4O7,0.0
mp-1042482,BaYVCuO5,0.0
mp-1048425,BaYW4O7,0.0
mp-1227396,BaYZn3CoO7,0.0
mp-704669,BaYb2(MoO4)4,0.0
mp-6323,BaYb2CuO5,0.0
mp-614986,BaYb2NiO5,0.0
mp-754422,BaYb2O4,0.0
mp-1183398,BaYb3,0.0
mp-1201554,BaYb6Si7O24,0.0
mp-1214205,BaYbAl3SiN4O3,0.0
mp-1214224,BaYbCuTe3,0.0
mp-1183406,BaYbO3,0.0
mp-6778,BaYbSi4N7,0.0
mp-571479,BaYbSn3,0.0
mp-902,BaZn,0.0
mp-1046965,BaZn(AgO2)4,0.0
mp-1046963,BaZn(CuO2)4,0.0
mp-1044491,BaZn(MoO2)4,0.0
mp-1046970,BaZn(SbO2)4,0.0
mp-1046984,BaZn(SnO2)4,0.0
mp-1044892,BaZn(WO2)4,0.0
mp-672225,BaZn13,0.0
mp-30435,BaZn2,0.0
mp-1214271,BaZn2Cu2As3,0.0
mp-723480,BaZn3P4(H7O9)2,0.0
mp-30427,BaZnBi2,0.0
mp-1044490,BaZnCr4O8,0.0
mp-11818,BaZnGe,0.0
mp-1227349,BaZnIn3,0.0
mp-1047902,BaZnMoF7,3.8422000000000014
mp-1183405,BaZnO3,0.0
mp-1182697,BaZnO5,0.0
mp-510311,BaZnPb,0.0
mp-1202499,BaZnRu5O11,0.0
mp-1205765,BaZnSb2,0.0
mp-31147,BaZnSi,0.0
mp-1227443,BaZnSn2,0.0
mp-1041328,BaZnSnF7,0.0
mp-13593,BaZnSnS4,2.3609999999999998
mp-631542,BaZrNi,0.0
mp-772198,Be(Bi3O5)4,0.0
mp-770957,Be(CoO2)2,0.0
mp-12665,Be12Ag,0.0
mp-12664,Be12Au,0.0
mp-1104193,Be12Co,0.0
mp-1590,Be12Cr,0.0
mp-1104104,Be12Fe,0.0
mp-1475,Be12Mo,0.0
mp-568912,Be12Nb,0.0
mp-12666,Be12Pd,0.0
mp-571438,Be12V,0.0
mp-568827,Be12W,0.0
mp-1214523,Be13Mo,0.0
mp-1215037,Be13Re,0.0
mp-13608,Be13Sb,0.0
mp-1214511,Be13W,0.0
mp-1214241,Be15(Nb3Cu4)2,0.0
mp-1214229,Be15(Nb3Ni4)2,0.0
mp-30441,Be17Nb2,0.0
mp-1199166,Be17Os3,0.0
mp-30443,Be17Ru3,0.0
mp-30440,Be22Mo,0.0
mp-30444,Be22W,0.0
mp-603,Be2Ag,0.0
mp-1093938,Be2AgPt,0.0
mp-720433,Be2As(HO)9,4.205299999999999
mp-1432,Be2B,0.0
mp-1079124,Be2BO5,0.0
mp-631489,Be2CdP,0.0
mp-1227342,Be2Co,0.0
mp-1097104,Be2CoAu,0.0
mp-867274,Be2CoIr,0.0
mp-867271,Be2CoNi,0.0
mp-1096569,Be2CoPd,0.0
mp-867270,Be2CoPt,0.0
mp-1093807,Be2CoRh,0.0
mp-1097143,Be2CoRu,0.0
mp-1227277,Be2CoSi,0.0
mp-30438,Be2Cr,0.0
mp-2031,Be2Cu,0.0
mp-867273,Be2CuIr,0.0
mp-1097651,Be2CuNi,0.0
mp-865869,Be2CuPt,0.0
mp-865308,Be2CuRh,0.0
mp-865147,Be2CuRu,0.0
mp-2225,Be2Fe,0.0
mp-1096327,Be2FeRu,0.0
mp-1097628,Be2IrAu,0.0
mp-865003,Be2IrPd,0.0
mp-867280,Be2IrPt,0.0
mp-1183419,Be2IrRu,0.0
mp-1677,Be2Mo,0.0
mp-1195806,Be2NCl5,0.0
mp-2028,Be2Nb,0.0
mp-11272,Be2Nb3,0.0
mp-865229,Be2NiIr,0.0
mp-866224,Be2NiPt,0.0
mp-864895,Be2NiRh,0.0
mp-1183421,Be2NiRu,0.0
mp-1096580,Be2OsAu,0.0
mp-1093954,Be2PdAu,0.0
mp-864961,Be2PdPt,0.0
mp-866115,Be2PdRh,0.0
mp-1095792,Be2PtAu,0.0
mp-862600,Be2PtRh,0.0
mp-11275,Be2Re,0.0
mp-631496,Be2ReCl,0.0
mp-866024,Be2RhAu,0.0
mp-1103315,Be2Ru,0.0
mp-867307,Be2RuAu,0.0
mp-865021,Be2RuPt,0.0
mp-1009829,Be2Si,0.0
mp-1096641,Be2TcPt,0.0
mp-11281,Be2V,0.0
mp-1009830,Be2Zn,0.0
mp-1202034,Be3As2H10(NO5)2,4.065799999999999
mp-1214323,Be3Cd2(NF6)2,0.0
mp-1183425,Be3Co,0.0
mp-1214936,Be3Co2(NF6)2,0.0
mp-1227357,Be3Cu,0.0
mp-1041184,Be3Cu2(SiO4)3,0.0
mp-983590,Be3Fe,0.0
mp-1183424,Be3Ge,0.0
mp-862714,Be3Ir,0.0
mp-984315,Be3Ni,0.0
mp-1183408,Be3Pd,0.0
mp-864894,Be3Rh,0.0
mp-865562,Be3Ru,0.0
mp-1183434,Be3S,0.0
mp-1183407,Be3Si,0.0
mp-1041173,Be3Si3(AgO6)2,0.0
mp-1048097,Be3Si3(NiO6)2,0.0
mp-977552,Be3Tc,0.0
mp-1205157,Be3Zn2(NF6)2,0.0
mp-1227597,Be46Ir7,0.0
mp-1227691,Be46Os7,0.0
mp-1227672,Be46Rh7,0.0
mp-1227622,Be46Ru7,0.0
mp-1227276,Be4AlCr,0.0
mp-1227275,Be4AlCu,0.0
mp-1227272,Be4AlFe,0.0
mp-1227279,Be4AlNi,0.0
mp-27757,Be4B,0.0
mp-1227634,Be4B25,0.0
mp-1227289,Be4CoGe,0.0
mp-1227375,Be4CrMo,0.0
mp-1227292,Be4CuGe,0.0
mp-1227281,Be4CuSi,0.0
mp-1227297,Be4FeGe,0.0
mp-1227318,Be4InCu,0.0
mp-1227348,Be4NbMo,0.0
mp-1227295,Be4NiGe,0.0
mp-707304,Be4Si2H2O9,5.739199999999999
mp-1194006,Be4Si2O9,0.0
mp-1227282,Be4SiNi,0.0
mp-1227449,Be5(Al2Fe)2,0.0
mp-1220,Be5Au,0.0
mp-1071690,Be5Co,0.0
mp-1025010,Be5Fe,0.0
mp-650,Be5Pd,0.0
mp-1227382,Be8Ru,0.0
mp-984719,BeAg3,0.0
mp-1183417,BeAgO3,0.0
mp-1183412,BeAl3,0.0
mp-1096166,BeAlCo2,0.0
mp-23719,BeAlH5,3.2039999999999997
mp-865966,BeAlIr2,0.0
mp-1093684,BeAlPd2,0.0
mp-1097646,BeAlPt2,0.0
mp-862287,BeAlRh2,0.0
mp-1227412,BeAlSiN3,0.0
mp-1183409,BeAsRu2,0.0
mp-30365,BeAu,0.0
mp-12761,BeAu2,0.0
mp-983539,BeAu3,0.0
mp-1183414,BeAuO3,0.0
mp-1009823,BeB2,0.0
mp-1183422,BeBO3,0.0
mp-1183403,BeBiO3,0.0
mp-631507,BeBiOs2,0.0
mp-1189451,BeCN2,5.499099999999999
mp-1183418,BeCdO3,0.0
mp-1178530,BeClO,0.0
mp-2773,BeCo,0.0
mp-862706,BeCo2Ge,0.0
mp-1095847,BeCo2P,0.0
mp-865901,BeCo2Si,0.0
mp-1183401,BeCr3,0.0
mp-1183416,BeCrFe2,0.0
mp-1097173,BeCrIr2,0.0
mp-1096122,BeCrOs2,0.0
mp-1097531,BeCrPt2,0.0
mp-867837,BeCrRu2,0.0
mp-1183426,BeCuO3,0.0
mp-1182494,BeCuO5F4,0.0
mp-1093749,BeCuPd2,0.0
mp-1095998,BeFe2P,0.0
mp-1096665,BeFe2W,0.0
mp-1227549,BeFe3,0.0
mp-1093628,BeFePt2,0.0
mp-867840,BeFeRh2,0.0
mp-1097372,BeFeRu2,0.0
mp-1183428,BeGa3,0.0
mp-984721,BeGaCo2,0.0
mp-867116,BeGaIr2,0.0
mp-1097544,BeGaPd2,0.0
mp-1093926,BeGaPt2,0.0
mp-631450,BeGe2Te,0.0
mp-1183427,BeGe3,0.0
mp-631541,BeGeB,0.0
mp-1093946,BeGeIr2,0.0
mp-1183415,BeGeO3,0.0
mp-862713,BeGeRu2,0.0
mp-1183400,BeH,0.0
mp-1204117,BeH12C4(SBr)2,4.428599999999999
mp-1199791,BeH24C8S4(ClO2)2,3.684
mp-1183413,BeHgO3,0.0
mp-570886,BeI2,4.067699999999999
mp-984776,BeIn3,0.0
mp-631497,BeInBi,0.0
mp-1183436,BeInO3,0.0
mp-1097595,BeInPt2,0.0
mp-631467,BeInSi2,0.0
mp-11271,BeMo3,0.0
mp-1095736,BeNbCo2,0.0
mp-1095938,BeNbOs2,0.0
mp-867828,BeNbRu2,0.0
mp-1033,BeNi,0.0
mp-1183432,BeNi3,0.0
mp-1214291,BeO2,0.0
mp-1183431,BeOsO3,0.0
mp-1192687,BePNO4,0.0
mp-760410,BePO4,0.0
mp-1183495,BePb3,0.0
mp-1183499,BePbO3,0.0
mp-11274,BePd,0.0
mp-1183447,BePdO3,0.0
mp-1097101,BePt2Au,0.0
mp-1183451,BePtO3,0.0
mp-631537,BeReB,0.0
mp-1183476,BeReO3,0.0
mp-11276,BeRh,0.0
mp-862622,BeRu2W,0.0
mp-1183473,BeRu3,0.0
mp-1182463,BeSO8,0.0
mp-631578,BeSbAs2,0.0
mp-1183443,BeSbO3,0.0
mp-865904,BeSiIr2,0.0
mp-865792,BeSiNi2,0.0
mp-867767,BeSiRh2,0.0
mp-1093711,BeSiTc2,0.0
mp-866288,BeVCo2,0.0
mp-867304,BeVFe2,0.0
mp-1093577,BeVIr2,0.0
mp-1183449,BeVO3,0.0
mp-867275,BeVOs2,0.0
mp-1097545,BeVRh2,0.0
mp-867874,BeVRu2,0.0
mp-631535,BeW2Cl,0.0
mp-1194397,BeZn13,0.0
mp-1095795,BeZnIr2,0.0
mp-984552,BeZnO3,0.0
mp-1193340,Bi(CO2)3,0.0
mp-1104502,Bi(Mo3S4)2,0.0
mp-504355,Bi(PO3)4,0.0
mp-1104660,Bi(PdO2)2,0.0
mp-1178522,Bi(SO4)2,0.0
mp-1041572,Bi(WO4)2,0.0
mp-1104558,Bi10Mo3,0.0
mp-758223,Bi11PO20,0.0
mp-757916,Bi12AsO20,0.0
mp-769060,Bi12BO20,0.0
mp-1214265,Bi12Br5O16,0.0
mp-766035,Bi12Cl5O16,0.0
mp-685339,Bi12Ir12O41,0.0
mp-1214246,Bi12IrO20,0.0
mp-766268,Bi12O16F5,0.0
mp-645514,Bi12Rh3Br2,0.0
mp-1195274,Bi12Rh3Cl2,0.0
mp-1105985,Bi14Mo5,0.0
mp-581527,Bi14Rh3,0.0
mp-686128,Bi15Ru16O55,0.0
mp-757852,Bi16O25,0.0
mp-1194717,Bi16Pt11I6,0.0
mp-773884,Bi19O30,0.0
mp-755446,Bi2(BO3)3,0.0
mp-1203464,Bi2AsO6,0.0
mp-618309,Bi2AuO5,0.0
mp-754692,Bi2BO5,0.0
mp-1196308,Bi2C3(BrN)9,0.0
mp-1207151,Bi2I2O,0.0
mp-1101783,Bi2Ir,0.0
mp-558392,Bi2Ir2O7,0.0
mp-1200015,Bi2N2O9,0.0
mp-1227833,Bi2NO6,0.2429000000000001
mp-554545,Bi2Os2O7,0.0
mp-631571,Bi2OsAu,0.0
mp-1044873,Bi2P2O9,0.0
mp-1214442,Bi2P3(PbO4)3,0.0
mp-568746,Bi2Pd,0.0
mp-1103697,Bi2Pd3Se2,0.0
mp-30464,Bi2Pd5,0.0
mp-1227322,Bi2PdPt,0.0
mp-1103724,Bi2Pt3Se2,0.0
mp-23217,Bi2Rh,0.0
mp-555225,Bi2Rh2O7,0.0
mp-977592,Bi2Rh3S2,0.0
mp-1201092,Bi2SO7,0.0
mp-1182077,Bi2Se,0.0
mp-1227413,Bi2Te,0.0
mp-1047521,Bi3(AsO4)4,0.0
mp-1192903,Bi3(AsO5)2,0.0
mp-1191820,Bi3(B3O7)2,0.0
mp-1205424,Bi3(PO5)2,0.0
mp-680086,Bi34Ir3Br37,0.0
mp-1183505,Bi3As,0.0
mp-1183504,Bi3Au,0.0
mp-772189,Bi3Ir3O11,0.0
mp-1189810,Bi3Mo,0.0
mp-1022722,Bi3O2,0.0
mp-1044088,Bi3O7,0.0
mp-1183506,Bi3P,0.0
mp-1041261,Bi3P3O13,0.0
mp-1183465,Bi3Pb,0.0
mp-1227450,Bi3Pd12Pb,0.0
mp-1227388,Bi3Pd5,0.0
mp-1198800,Bi3Pd8,0.0
mp-560373,Bi3Pt3O11,0.0
mp-581990,Bi3Rh,0.0
mp-504468,Bi3Ru3O11,0.0
mp-1227418,Bi3SbPt2,0.0
mp-1227656,Bi3Te5Pb,0.0
mp-769052,Bi4(BO4)3,0.0
mp-1214289,Bi4(PO4)3,0.0
mp-1214182,Bi4Au,0.0
mp-1194918,Bi4Ir,0.0
mp-1041273,Bi4O9,0.0
mp-1227555,Bi4PPd15,0.0
mp-1104254,Bi4Pb(ClO3)2,0.0
mp-30467,Bi4Rh,0.0
mp-27607,Bi4Se3,0.0
mp-28229,Bi4Te3,0.0
mp-673116,Bi5(PO4)6,0.0
mp-554249,Bi6Cl3O7F,2.994
mp-1200045,Bi6N5O26,0.0
mp-767410,Bi6P2O15,0.0
mp-1214175,Bi7I2,0.0
mp-1190719,Bi8Mo3,0.0
mp-1104961,Bi8Pt5I3,0.0
mp-766286,Bi8Rh8O27,0.0
mp-680214,Bi8Se7,0.0
mp-28149,Bi9I2,0.0
mp-1214200,BiAsO2,0.0
mp-1227409,BiAsPd6,0.0
mp-570113,BiAu2,0.0
mp-768314,BiB2O5,0.0
mp-1096844,BiB6,0.0
mp-631539,BiBCl,0.0
mp-631511,BiBTe,0.0
mp-1182391,BiBr7(N3F2)2,0.0
mp-1197076,BiC2O5,0.0
mp-1199579,BiH14C4S8N5O,2.837
mp-984050,BiH3,0.0
mp-1214376,BiH5(NO3)3,0.0
mp-1229231,BiMo30(PbS10)4,0.0
mp-1214235,BiMoO2,0.0
mp-1183479,BiMoO3,0.0
mp-631482,BiMoRh,0.0
mp-26594,BiP2O7,0.0
mp-1199164,BiP4NO12,0.0
mp-1043572,BiPO5,0.0
mp-1227326,BiPb,0.0
mp-1214261,BiPb3Au,0.0
mp-1227459,BiPb4,0.0
mp-1183442,BiPd2Au,0.0
mp-568476,BiPd2Pb,0.0
mp-30463,BiPd3,0.0
mp-1227313,BiPd6Pb,0.0
mp-1227421,BiPd6Se,0.0
mp-1095370,BiPdSe,0.0
mp-1066078,BiPt,0.0
mp-1183477,BiPt3,0.0
mp-1214280,BiPtO14,0.0
mp-1183469,BiPtO3,0.0
mp-680530,BiPtPb3,0.0
mp-1103607,BiPtSe,0.0
mp-1064554,BiRh,0.0
mp-1229239,BiRh7Pb2O15,0.0
mp-753640,BiRu2O7,0.0
mp-28677,BiS,0.0
mp-1183481,BiS3,0.0
mp-631474,BiSb2Os,0.0
mp-1227298,BiSbPd2,0.0
mp-1227441,BiSbPt,0.0
mp-1227296,BiSbPt2,0.0
mp-23224,BiTe,0.0
mp-35216,BiTe3,0.0
mp-29011,BiTePd,0.0
mp-29638,BiTePt,0.0
mp-1214232,BiWO2,0.0
mp-1183535,Br2Cl3,0.0
mp-36891,Br3N,0.0
mp-1066781,BrCl,1.7830000000000001
mp-1182030,BrN,0.0
mp-555071,BrN(OF2)2,2.341
mp-1181998,BrO,0.0
mp-1182474,BrO2,0.0
mp-1182120,BrO3,0.0
mp-22966,C(ClF)2,5.706799999999999
mp-1202855,C10I3N4,0.0
mp-1214334,C12SF10,3.152
mp-1078791,C2N3,0.0
mp-555625,C2SClO4F3,5.053599999999999
mp-555948,C37F21,2.018
mp-1014296,C3N,0.0
mp-1198447,C3N4O3,0.0
mp-1182500,C5N4O3,2.567
mp-1203084,C6I3N4,0.0
mp-1203490,CIN2O7,0.0