task_id,composition,band_gap
mp-1019086,CN2,4.6339999999999995
mp-995183,CO,0.0
mp-995196,CO3,0.0
mp-1147643,CS,0.0
mp-30054,CS2N,2.982
mp-1214236,CSN3,0.0
mp-7878,Ca(AgGe)2,0.0
mp-1196837,Ca(Al10Cr)2,0.0
mp-10877,Ca(Al2Cu)4,0.0
mp-17871,Ca(Al4Co)2,0.0
mp-18142,Ca(Al5Cr)2,0.0
mp-9690,Ca(AlGa)2,0.0
mp-3862,Ca(AlGe)2,0.0
mp-7704,Ca(AlSi)2,0.0
mp-1147766,Ca(AlSn)2,0.0
mp-30175,Ca(AlZn)2,0.0
mp-16044,Ca(As2Rh3)2,0.0
mp-5166,Ca(AsPd)2,0.0
mp-5610,Ca(AsRu)2,0.0
mp-1227448,Ca(B2Pt3)2,0.0
mp-14445,Ca(BIr)2,0.0
mp-1105926,Ca(BO3)2,0.0
mp-8431,Ca(BRh)2,0.0
mp-31209,Ca(BeGe)2,0.0
mp-1227488,Ca(BiAu3)2,0.0
mp-1078064,Ca(CdAu2)2,0.0
mp-38870,Ca(Ce2Se3)4,0.0
mp-33560,Ca(CeS2)2,0.0
mp-675740,Ca(CeTe2)2,0.0
mp-569298,Ca(CoAs)2,0.0
mp-4259,Ca(CoGe)2,0.0
mvc-15523,Ca(CoN)2,0.0
mvc-11660,Ca(CoO2)4,0.0
mp-3210,Ca(CoP)2,0.0
mvc-14448,Ca(CoS2)4,0.0
mp-1070152,Ca(CoSi)2,0.0
mvc-2137,Ca(CrN)2,0.0
mvc-11417,Ca(CrS2)4,0.0
mp-28006,Ca(Cu2As)2,0.0
mp-1046807,Ca(Cu2O3)2,0.0
mp-22295,Ca(Cu2P)2,0.0
mp-1147677,Ca(Cu3O4)2,0.0
mp-1183490,Ca(CuAs)2,0.0
mp-4441,Ca(CuGe)2,0.0
mvc-13426,Ca(CuN)2,0.0
mp-7422,Ca(CuP)2,0.0
mp-5486,Ca(CuSi)2,0.0
mp-568974,Ca(CuSn)2,0.0
mp-1068300,Ca(FeAs)2,0.0
mvc-15578,Ca(FeN)2,0.0
mvc-12189,Ca(FeO2)4,0.0
mp-5597,Ca(FeP)2,0.0
mp-1045503,Ca(FeS2)2,0.0
mvc-107,Ca(FeS2)4,0.0
mp-13464,Ca(FeSb3)4,0.0
mp-1068250,Ca(FeSi)2,0.0
mp-7883,Ca(GeAu)2,0.0
mp-16259,Ca(GeIr)2,0.0
mp-16260,Ca(GePd)2,0.0
mp-1091390,Ca(GePt)2,0.0
mp-16261,Ca(GeRh)2,0.0
mp-1078208,Ca(IN3)2,0.0
mp-1227648,Ca(InCu)6,0.0
mp-674712,Ca(La2Se3)4,0.0
mp-10878,Ca(MnAl2)4,0.0
mp-1227419,Ca(MnAl3)3,0.0
mp-5498,Ca(MnAs)2,0.0
mp-29615,Ca(MnBi)2,0.0
mp-19824,Ca(MnGe)2,0.0
mvc-13730,Ca(MnN)2,0.0
mp-6953,Ca(MnP)2,0.0
mp-1045467,Ca(MnS2)2,0.0
mvc-93,Ca(MnS2)4,0.0
mp-4150,Ca(MnSb)2,0.0
mp-8530,Ca(Mo3S4)2,0.0
mp-1044218,Ca(MoO2)4,0.0
mp-1043722,Ca(Ni2O3)2,0.0
mp-4744,Ca(NiAs)2,0.0
mp-2949,Ca(NiGe)2,0.0
mvc-11775,Ca(NiN)2,0.0
mp-4064,Ca(NiP)2,0.0
mp-1045498,Ca(NiS2)2,0.0
mvc-14449,Ca(NiS2)4,0.0
mp-6926,Ca(PPd)2,0.0
mp-8580,Ca(PRh)2,0.0
mp-5157,Ca(PRu)2,0.0
mp-558172,Ca(PtO2)2,0.0
mp-1214123,Ca(Sb3Os)4,0.0
mp-1214452,Ca(Si9O19)2,0.0
mp-7364,Ca(SiAu)2,0.0
mp-5292,Ca(SiNi)2,0.0
mp-567769,Ca(SiPd)2,0.0
mp-1069956,Ca(SiRh)2,0.0
mp-34196,Ca(Sm2Se3)4,0.0
mvc-404,Ca(Sn2O3)2,0.0
mvc-13410,Ca(SnN)2,0.0
mvc-13408,Ca(TiN)2,0.0
mp-1227354,Ca(TiS2)2,0.0
mvc-11744,Ca(TiS2)4,0.0
mp-1048589,Ca(TiS2)8,0.0
mvc-11260,Ca(VS2)2,0.0
mvc-13560,Ca(VS2)4,0.0
mp-1044591,Ca(W2O3)2,0.0
mvc-13850,Ca(WN)2,0.0
mp-675650,Ca(YbS2)2,0.0
mp-13911,Ca(ZnGe)2,0.0
mp-7429,Ca(ZnSb)2,0.0
mp-12137,Ca(ZnSi)2,0.0
mp-570487,Ca10(Al2Ge3)3,0.0
mp-1227456,Ca10Ge6F,0.0
mp-569202,Ca10Mg2Sb9,0.0
mp-683950,Ca10Pr4Cu24O41,0.0
mp-1205012,Ca10Si3Pt7,0.0
mp-1227429,Ca10Si6F,0.0
mp-1227627,Ca10V3P3(O12F)2,3.8039000000000014
mp-1227912,Ca11(Cd9Au2)2,0.0
mp-29532,Ca11(ReO6)4,0.0
mp-680640,Ca11N8,0.0
mp-12241,Ca11Sb10,0.0
mp-1214142,Ca11Si4ClO18,0.0
mp-765152,Ca11Tl9O24,0.0
mp-743917,Ca11YAl15Cr4SiO48,0.0
mp-1203630,Ca13(Ge11Au25)2,0.0
mp-1193055,Ca13Al14,0.0
mp-1227899,Ca14Hg51,0.0
mp-532462,Ca14MnAs11,0.0
mp-570149,Ca14MnBi11,0.0
mp-568798,Ca14MnSb11,0.0
mp-29013,Ca14Si19,0.0
mp-1227837,Ca15Ni(IrO6)4,0.0
mp-1019552,Ca16(SiN2)17,0.0
mp-675153,Ca16HN8,0.0
mp-1227563,Ca16Mg3Sn13,0.0
mp-1227708,Ca16Sb11,0.0
mp-686346,Ca17(Y7S19)2,0.0
mp-677016,Ca18Eu2P12(SO16)3,0.0
mp-5669,Ca19Ag8N7,0.0
mp-642331,Ca19In8N7,0.0
mp-653005,Ca2(Fe2O3)11,0.0
mp-1193221,Ca2(Ni7B2)3,0.0
mp-1227788,Ca2(TlPb)3,0.0
mp-1227416,Ca2(ZnAu3)3,0.0
mp-1227579,Ca20(CdGa3)3,0.0
mp-581814,Ca21(Mn2Bi9)2,0.0
mp-30217,Ca21(Mn2Sb9)2,0.0
mp-570883,Ca21(Zn18Ni)2,0.0
mp-685437,Ca22H51Rh11,0.0
mp-685526,Ca28(Yb5S16)3,0.0
mp-568793,Ca28Ga11,0.0
mvc-3809,Ca2Ag2O5,0.0
mp-16770,Ca2Ag7,0.0
mp-983850,Ca2AgAu,0.0
mp-983566,Ca2AgGe,0.0
mp-864991,Ca2AgPb,0.0
mp-1183456,Ca2AgPd,0.0
mp-1068053,Ca2AgPd2,0.0
mp-1183516,Ca2AgRh,0.0
mp-867751,Ca2AgSn,0.0
mvc-5044,Ca2AgWO6,0.0
mp-1196208,Ca2Al2FeSi3O13,0.0
mp-863005,Ca2Al2Si6SnO22,0.0
mp-1227478,Ca2Al2SiO8,0.0
mp-1214293,Ca2Al3Si3O14,0.0
mvc-5154,Ca2AlAgO5,0.0
mp-1095982,Ca2AlCd,0.0
mvc-4889,Ca2AlCuO5,0.0
mvc-5183,Ca2AlNiO5,0.0
mp-1193850,Ca2AlP2O9,0.0
mp-1227376,Ca2AlP3Pt7,0.0
mp-1193801,Ca2AlPbF9,5.7756000000000025
mp-1078304,Ca2AlPd2,0.0
mp-1078362,Ca2AlPt2,0.0
mp-1214098,Ca2AlSi2O7,0.0
mp-1093659,Ca2AlTl,0.0
mp-1093539,Ca2AlZn,0.0
mp-1227383,Ca2AlZn16,0.0
mp-10106,Ca2As,0.0
mp-581887,Ca2As4Xe5F34,2.8339999999999996
mp-29175,Ca2AuN,0.0
mp-8895,Ca2B4Rh5,0.0
mp-1197116,Ca2B5H7O13,5.484999999999999
mp-27657,Ca2B6O11,5.6389999999999985
mp-706291,Ca2B8H2O15,5.576099999999999
mp-1095596,Ca2BAsO8,0.0
mp-569535,Ca2Bi,0.0
mp-1214150,Ca2Bi3(PO4)3,0.0
mp-1227595,Ca2Bi3Au10,0.0
mvc-15933,Ca2Bi3O8,0.0
mp-1227392,Ca2Bi7,0.0
mp-1207045,Ca2Br2F,0.0
mp-1093668,Ca2CdAg,0.0
mp-1096182,Ca2CdAu,0.0
mp-1183448,Ca2CdGa,0.0
mp-1183458,Ca2CdHg,0.0
mp-977453,Ca2CdIn,0.0
mp-1068286,Ca2CdPd2,0.0
mp-1069824,Ca2CdPt2,0.0
mp-1097124,Ca2CdRh,0.0
mp-861940,Ca2CdSn,0.0
mp-1206596,Ca2Cl2F,0.0
mp-10923,Ca2Co12P7,0.0
mp-1195269,Ca2Co2O5,0.0
mp-1147777,Ca2CoC(NO)2,0.0
mvc-5820,Ca2CoIrO6,0.0
mvc-15272,Ca2CoN2,0.0
mp-631696,Ca2CoW,0.0
mvc-5785,Ca2CrIrO6,0.0
mvc-15308,Ca2CrN2,0.0
mp-1029550,Ca2CrN3,0.0
mp-12614,Ca2Cu,0.0
mp-545481,Ca2Cu(BrO)2,0.0
mp-1232312,Ca2Cu(CO)2,0.0
mp-23143,Ca2Cu(ClO)2,0.0
mp-1147535,Ca2Cu(SCl)2,0.0
mp-1147536,Ca2Cu(SO)2,0.0
mp-28660,Ca2Cu6P5,0.0
mp-1045684,Ca2Cu9O13,0.0
mp-1227346,Ca2CuAg,0.0
mp-1147632,Ca2CuC(NO)2,0.0
mp-1227430,Ca2CuCO5,0.0
mvc-5634,Ca2CuIrO6,0.0
mp-5869,Ca2CuO3,0.0
mp-1095908,Ca2CuPd,0.0
mp-1183482,Ca2CuRh,0.0
mvc-14832,Ca2CuRhO6,0.0
mp-1147722,Ca2CuSO2,0.0
mvc-5004,Ca2CuWO6,0.0
mp-1228042,Ca2Eu(CuO3)2,0.0
mp-1227643,Ca2Eu(Zn3Ni2)3,0.0
mp-1227823,Ca2Eu2In3Ge4,0.0
mp-1214133,Ca2EuBeO5,0.0
mp-684949,Ca2F,0.0
mvc-12271,Ca2Fe2(SiO4)3,0.0
mp-743675,Ca2Fe2Si5HO15,1.7469999999999999
mvc-14038,Ca2Fe3O8,0.0
mp-1214297,Ca2Fe3Si3O14,0.0
mp-555029,Ca2Fe9O13,0.0
mp-1214107,Ca2FeAs2F,0.0
mp-1095492,Ca2FeClO8,0.0
mp-1203339,Ca2FeCoO5,0.02549999999999964
mvc-5784,Ca2FeIrO6,0.0
mp-28770,Ca2FeN2,0.0
mp-1105304,Ca2FeOsO6,0.0
mp-31763,Ca2FeReO6,0.0
mp-1227351,Ca2Ga7Ag,0.0
mp-1227436,Ca2Ga7Au,0.0
mp-1227320,Ca2GaAg,0.0
mp-30472,Ca2GaCu2,0.0
mp-1183450,Ca2GaHg,0.0
mp-1078280,Ca2GaPd2,0.0
mp-1078428,Ca2GaPt2,0.0
mp-1227300,Ca2GaSi,0.0
mp-1227330,Ca2GaSn,0.0
mp-1214310,Ca2Gd3Si3O13,0.0
mp-1078326,Ca2GePd2,0.0
mp-1071127,Ca2GePd3,0.0
mp-1078483,Ca2GePt2,0.0
mp-1214091,Ca2HBr2,0.0
mp-1214086,Ca2HCl2,0.0
mp-1214100,Ca2HI2,0.0
mp-1103139,Ca2Hg,0.0
mp-1096753,Ca2HgAu,0.0
mp-1183503,Ca2HgBi,0.0
mp-866105,Ca2HgPb,0.0
mp-1096103,Ca2HgPt,0.33299999999999996
mp-1227762,Ca2HoMn3O9,0.0
mp-1227572,Ca2HoMn4BiO12,0.0
mp-20669,Ca2In,0.0
mp-630875,Ca2In4Au3,0.0
mp-1096268,Ca2InGa,0.0
mp-1183598,Ca2InHg,0.0
mp-510086,Ca2InN,0.0
mp-1183460,Ca2InPb,0.0
mp-20792,Ca2InPd2,0.0
mp-21885,Ca2InPt2,0.0
mp-540806,Ca2IrO4,0.0
mp-1227402,Ca2IrPtO6,0.0
mp-1214137,Ca2La2Cu3O8,0.0
mp-1227406,Ca2La2Ti3CuO12,0.0
mp-1227548,Ca2La3Cu4AgO12,0.0
mp-1214227,Ca2La3Si3O13,0.0
mvc-11916,Ca2La5Mn7NiO24,0.0
mp-1227578,Ca2La5Sb5O14,0.0
mp-743953,Ca2La8Ti5Cr5O30,0.0
mp-1214119,Ca2LaBeO5,0.0
mp-1227699,Ca2LaGaCu2O7,0.0
mp-1214095,Ca2LaMn2O7,0.0
mp-1227659,Ca2LaMn3O9,0.0
mp-1227467,Ca2LaNdMn4O12,0.0
mp-1106181,Ca2LaSbO6,3.5407
mp-1039467,Ca2Mg,0.0
mp-1214382,Ca2Mg2B4O13,0.0
mp-1095343,Ca2Mg3Si,0.0
mp-1227417,Ca2MgAg3,0.0
mp-1093696,Ca2MgAl,0.0
mp-1214260,Ca2MgAl2Si3O14,0.0
mp-1183457,Ca2MgCd,0.0
mp-1097370,Ca2MgGa,0.0
mp-867350,Ca2MgIn,0.0
mp-1068035,Ca2MgPd2,0.0
mp-1068002,Ca2MgPt2,0.0
mp-1227487,Ca2MgReO6,0.0
mp-861645,Ca2MgTl,0.0
mp-1097680,Ca2MgZn,0.22379999999999972
mp-1214281,Ca2Mn3Si3O14,0.0
mp-1228000,Ca2Mn7Si10H12O35,2.712
mp-1227903,Ca2MnAl2Si3O13,0.0
mp-1204491,Ca2MnAl2Si4BO16,0.0
mp-18907,Ca2MnAlO5,0.0
mp-578993,Ca2MnFeO5,0.0
mp-630403,Ca2MnGaO5,0.0
mp-39440,Ca2MnIrO6,0.0
mvc-14557,Ca2MnN2,0.0
mp-1029959,Ca2MnN3,0.0
mp-1106155,Ca2MnReO6,0.0
mp-1227575,Ca2MnRuO6,0.0
mp-1029689,Ca2MoN3,0.0
mvc-5110,Ca2MoO5,0.0
mp-1042164,Ca2Nb2BiO8,0.0
mp-1047029,Ca2Nb2MoO8,0.0
mp-1043626,Ca2Nb2SbO8,0.0
mp-1044156,Ca2Nb2WO8,0.0
mp-1227502,Ca2NbO6F,0.0
mp-1227616,Ca2Nd2MnNiO8,0.02480000000000037
mp-1191589,Ca2Ni12As7,0.0
mvc-3992,Ca2Ni2O5,0.0
mp-1045953,Ca2Ni9O13,0.0
mp-1047142,Ca2NiIrO6,0.0
mvc-15358,Ca2NiN2,0.0
mp-510537,Ca2NiOsO6,0.0
mp-554174,Ca2P2H8O11,4.854299999999999
mp-1227422,Ca2P7Ir12,0.0
mp-1183607,Ca2PbAu,0.0
mp-863744,Ca2PdAu,0.0
mp-1183493,Ca2PdPt,0.0
mp-1097623,Ca2PdRh,0.0
mp-25183,Ca2PdWO6,0.0
mp-1228704,Ca2Pr19(CoI12)3,0.0
mp-1214104,Ca2PrBeO5,0.0
mp-1214167,Ca2PrGaCu2O7,0.0
mp-755624,Ca2PrO4,0.0
mp-1227265,Ca2PtAu,0.0
mp-1063314,Ca2Rh,0.0
mp-554638,Ca2Ru2O7,0.0
mp-21466,Ca2RuO4,0.0
mp-9925,Ca2Sb,0.0
mvc-13947,Ca2Sb3O8,0.0
mp-571215,Ca2Sb4Pd3,0.0
mp-1227341,Ca2ScP3Pt7,0.0
mp-1214154,Ca2ScReO6,0.0
mp-29570,Ca2Si3Ag,0.0
mp-1227470,Ca2Si3Ni,0.0
mp-1214093,Ca2Si5Pt3,0.0
mp-867937,Ca2SiB5O14,0.2406000000000001
mp-30312,Ca2SiIr2,0.0
mp-1182405,Ca2SiO5,0.0
mp-1205089,Ca2SiO6,0.0
mp-1227446,Ca2SmYMn4O12,0.0
mp-1100346,Ca2Sn3S8,1.0390000000000001
mp-21774,Ca2Sn5Pt3,0.0
mp-1045693,Ca2Sn9O13,0.0
mp-1097367,Ca2SnAu,0.0
mp-1078274,Ca2SnGe2,0.0
mvc-5666,Ca2SnIrO6,0.0
mvc-3972,Ca2SnSbO6,0.0
mp-14560,Ca2Ta2O6F,0.0
mp-1045947,Ca2Ta2TiO8,0.0
mvc-4136,Ca2TaCuO6,0.0
mvc-4380,Ca2TaNiO6,0.0
mvc-4129,Ca2TaTiO6,0.0
mp-1227626,Ca2TbMn3O9,0.0
mp-1096895,Ca2Ti2O5,0.0
mvc-4838,Ca2TiAlO5,0.0
mvc-5618,Ca2TiIrO6,0.0
mvc-15307,Ca2TiN2,0.0
mp-1227718,Ca2TiRuO6,0.0
mvc-3961,Ca2TiSbO6,0.0
mp-1096035,Ca2TlAg,0.0
mp-1097521,Ca2TlGa,0.0
mp-1183453,Ca2TlHg,0.0
mp-1227698,Ca2TlIn,0.0
mp-861604,Ca2TlPb,0.0
mp-1183512,Ca2TlSn,0.0
mp-1183461,Ca2TlZn,0.0
mvc-15320,Ca2VN2,0.0
mvc-2865,Ca2W9O13,0.0
mvc-13792,Ca2WN2,0.0
mp-1214510,Ca2Y2Si4C3O23,0.0
mvc-5327,Ca2YAgO5,0.0
mp-1214112,Ca2YBeO5,0.0
mp-694869,Ca2YFe3(SnO6)2,0.0
mp-1227926,Ca2YMn3O9,0.0
mp-1047556,Ca2YNiO5,0.0
mvc-5178,Ca2YTiO5,0.0
mp-677126,Ca2YbF7,0.0
mp-1214109,Ca2YbRuO6,0.0
mp-1039208,Ca2Zn,0.0
mp-1227685,Ca2Zn3Ag,0.0
mp-1227661,Ca2Zn3Ga,0.0
mp-1096168,Ca2ZnAg,0.0
mp-1183459,Ca2ZnCd,0.0
mp-1183463,Ca2ZnGa,0.0
mp-1227660,Ca2ZnGa3,0.0
mp-1183464,Ca2ZnHg,0.0
mp-1183608,Ca2ZnIn,0.0
mp-1227973,Ca2ZnSb2,0.0
mp-10670,Ca3(AlGe)2,0.0
mp-9577,Ca3(AlSi)2,0.0
mp-1200693,Ca3(AsO9)2,0.0011999999999999784
mp-569257,Ca3(B3Rh4)2,0.0
mp-31278,Ca3(Bi2Pd)4,0.0
mp-1192828,Ca3(Cd2Pt)4,0.0
mp-1227871,Ca3(CdGa2)2,0.0
mp-1102874,Ca3(ClO3)2,0.0
mp-18792,Ca3(CoO3)2,0.0
mp-570710,Ca3(Cu2Sn)4,0.0
mp-1215136,Ca3(Fe3O5)5,0.0
mp-1116769,Ca3(FeN2)2,0.0
mp-11285,Ca3(GaNi)4,0.0
mp-31480,Ca3(GaPd)2,0.0
mp-31479,Ca3(GaPt)2,0.0
mp-1095240,Ca3(GeIr)4,0.0
mp-1229014,Ca3(InGa2)2,0.0
mp-21677,Ca3(InNi2)4,0.0
mp-1094154,Ca3(MgZn2)5,0.0
mp-1227743,Ca3(Ru2O7)2,0.0
mp-11176,Ca3(SiIr)4,0.0
mp-1044964,Ca3(TiS2)4,0.0
mp-1048666,Ca3(TiS2)8,0.0
mp-680302,Ca31Sn20,0.0
mp-1229268,Ca33Mo27O80,0.0
mp-1183486,Ca3Ac,0.0
mp-1183452,Ca3Ag,0.0
mvc-4248,Ca3Ag2(GeO4)3,0.0
mp-646824,Ca3Ag8,0.0
mp-677067,Ca3Al4Si8(ClO12)2,3.6088000000000013
mp-1227806,Ca3Al4SiO12,0.013500000000000071
mp-680394,Ca3AlCd17,0.0
mp-1096854,Ca3As2,0.0
mp-1237313,Ca3As2(W5O4)2,0.0
mp-9040,Ca3AuN,0.0
mp-1013735,Ca3Bi2,0.0
mvc-3359,Ca3Bi2O7,0.0
mp-1227757,Ca3BiAu14,0.0
mp-1183501,Ca3Cd,0.0
mp-18167,Ca3Cd2,0.0
mp-1200470,Ca3Co4Sn13,0.0
mp-1029610,Ca3CoN3,0.0
mp-1182068,Ca3CoO6,0.0
mp-555261,Ca3CoRhO6,0.0
mp-8670,Ca3CrN3,0.0
mp-545706,Ca3Cu2(BrO2)2,0.0
mp-23095,Ca3Cu2(ClO2)2,0.0
mp-722867,Ca3Cu5Si9O26,0.0
mp-505151,Ca3CuIrO6,0.0
mp-558434,Ca3CuRhO6,0.0
mp-1183523,Ca3Dy,0.0
mp-1183960,Ca3Eu,0.0
mvc-12765,Ca3Fe2(ReO6)2,0.0
mvc-14254,Ca3Fe2(RhO6)2,0.0
mvc-14981,Ca3Fe2(SbO6)2,0.0
mp-1214233,Ca3Fe3(SbO6)2,0.0
mp-1029659,Ca3FeN3,0.0
mp-1214159,Ca3Ga3(SnO6)2,0.0
mp-1214023,Ca3Ga3Ge3O14,0.0
mp-31481,Ca3Ga3Ir2,0.0
mp-607230,Ca3Ga3Rh2,0.0
mp-30473,Ca3Ga5,0.0
mp-1228401,Ca3GdAl8,0.0
mp-1202780,Ca3Ge13Ir4,0.0
mp-1201179,Ca3Ge13Rh4,0.0
mp-1214045,Ca3Ge2Au9,0.0
mp-1227773,Ca3Ge3Au8,0.0
mp-1214042,Ca3Ge4Au7,0.0
mp-11822,Ca3GeN,0.0
mp-1214065,Ca3GeO4F,0.0
mp-571484,Ca3Hg,0.0
mp-11288,Ca3Hg2,0.0
mp-1183498,Ca3Ho,0.0
mp-1227754,Ca3HoMn4O12,0.0
mp-606503,Ca3InAu3,0.0
mp-1214026,Ca3La2Sb3O14,0.0
mp-1229300,Ca3La32(OsI12)5,0.0
mp-706245,Ca3La5Mn6(CuO12)2,0.0
mp-743745,Ca3La5Mn7CrO24,0.0
mp-694928,Ca3La5Mn7FeO24,0.0
mp-39207,Ca3La5Mn7NiO24,0.0
mp-744126,Ca3La7Ti5Cr5O30,0.0
mp-1227846,Ca3LaMn2(IrO6)2,0.0
mp-1227732,Ca3LaMn4O12,0.0
mp-1227663,Ca3LaSi8,0.0
mp-1183480,Ca3Lu,0.0
mp-1094857,Ca3Mg,0.0
mp-1214140,Ca3Mg2(AsO4)3,0.0
mp-1227816,Ca3Mg2Ni13,0.0
mp-1094707,Ca3Mg4Zn11,0.0
mp-1227887,Ca3MgNi14,0.0
mp-1183485,Ca3Mn,0.0
mvc-14930,Ca3Mn2(IrO6)2,0.0
mp-19597,Ca3Mn2(SiO4)3,0.0
mp-1214143,Ca3Mn2O12,0.0
mp-1227724,Ca3Mn4BiO12,0.0
mp-704674,Ca3MnCoO6,0.0
mp-1214341,Ca3MnH3(SO7)2,0.0
mp-14763,Ca3MnN3,0.0
mp-1182615,Ca3MnS2O17,0.0
mp-1214029,Ca3NbO6,0.0
mp-1183491,Ca3Nd,0.0
mp-1214040,Ca3Nd2Sb3O14,0.0
mvc-15011,Ca3Nd4Nb6(FeO14)2,0.0
mp-1214498,Ca3Nd8(RuO6)4,0.0
mp-1227690,Ca3NdMn2O8,0.0
mp-1227759,Ca3NdMn4O12,0.0
mvc-14936,Ca3Ni2(WO6)2,0.0
mp-1182724,Ca3Ni2H8C10(S4O13)2,0.0
mp-8308,Ca3Ni7B2,0.0
mp-1183510,Ca3Os,0.0
mp-30479,Ca3Pb,0.0
mp-771827,Ca3Pb3I14,0.0
mp-20273,Ca3PbO,0.0
mp-1106061,Ca3Pd,0.0
mp-1104661,Ca3Pd2,0.0
mp-1183509,Ca3Pm,0.0
mp-1214039,Ca3Pr2Sb3O14,0.0
mp-984698,Ca3Pt2,0.0
mp-1030245,Ca3ReN4,0.0
mp-9457,Ca3ReO6,0.0
mp-3258,Ca3Ru2O7,0.0
mvc-14203,Ca3Sb2O7,0.0
mp-542138,Ca3Si2Ni3,0.0
mp-1214083,Ca3SiO4F,0.0
mp-1183494,Ca3Sm,0.0
mp-1227761,Ca3SmMn4O12,0.0
mp-1200211,Ca3Sn13Ir4,0.0
mp-1214141,Ca3Sn13Pt4,0.0
mp-4363,Ca3Sn13Rh4,0.0
mvc-4258,Ca3Sn2(GeO4)3,0.0
mp-637179,Ca3SnN,0.0
mp-29241,Ca3SnO,0.0
mp-1183522,Ca3Tb,0.0
mp-1227679,Ca3TbMn4O12,0.0
mvc-4198,Ca3Ti2(GeO4)3,0.0
mp-1154470,Ca3Ti2(SiO4)3,0.0
mvc-6200,Ca3Ti3(AsO4)4,0.11699999999999999
mp-984744,Ca3Tl,0.0
mp-1189230,Ca3Tl5,0.0
mp-1214010,Ca3TlO5,0.0
mp-1183533,Ca3U,0.0
mp-1183502,Ca3V,0.0
mvc-4394,Ca3V2(GeO4)3,0.0
mp-1163934,Ca3V2(SiO4)3,0.0
mp-1214146,Ca3V3(CoO6)2,0.0
mp-1214197,Ca3V3(CuO6)2,0.0
mp-1214162,Ca3V3(NiO6)2,0.0
mp-1183518,Ca3W,0.0
mp-1029782,Ca3W3N5,0.0
mp-781505,Ca3WO6,3.7060000000000004
mp-1183515,Ca3Y,0.0
mp-1227620,Ca3YTi4O12,0.0
mp-1214302,Ca3Yb2(GeO4)3,0.0
mp-30485,Ca3Zn,0.0
mp-1214451,Ca4(CuO2)5,0.0
mp-697126,Ca4(H4Rh)3,0.0
mp-28925,Ca4(PPd)5,0.0
mp-30174,Ca4Al51Cr7,0.0
mp-1227673,Ca4AlZn43,0.0
mp-31234,Ca4As7Ir8,0.0
mp-1214078,Ca4Bi2Br4O3,0.0
mp-1227562,Ca4Cd3Au,0.0
mp-1227574,Ca4Cd3Au5,0.0
mp-1229301,Ca4Er2(Sn5Pt3)3,0.0
mp-1227730,Ca4Fe3As8Pt,0.0
mp-1227865,Ca4Fe5(Si3O14)2,0.0
mp-1227558,Ca4GaSi3,0.0
mp-1227571,Ca4GaSn3,0.0
mp-1227613,Ca4Ge3Au5,0.0
mp-1203676,Ca4Ge3O11,0.0
mp-1227890,Ca4H16C8O25,0.0
mp-12541,Ca4Hg9,0.0
mp-20419,Ca4In2N,0.0
mp-645719,Ca4In3Au10,0.0
mp-4100,Ca4IrO6,0.0
mp-697834,Ca4La4Mn7NiO24,0.09260000000000004
mp-1102584,Ca4Mg4Fe3,0.0
mp-640340,Ca4MgAl3,0.0
mp-1193253,Ca4MgB4(CO9)2,0.0
mp-1214009,Ca4MgSn3,0.0
mp-1227726,Ca4Mn2Al2O11,0.0
mp-1227588,Ca4Mn3SbO12,0.0
mp-698549,Ca4Mn4O11,0.0
mp-1227877,Ca4Mn5Al(Si3O14)2,0.0
mp-1227666,Ca4Mn6Si5O28,0.0
mp-1227135,Ca4Nb6O21,0.0
mp-1214129,Ca4Ni,0.0
mp-1190866,Ca4Ni20H,0.0
mp-28742,Ca4Ni3C5,0.0
mp-1192309,Ca4Ni4Ge3,0.0
mp-31233,Ca4P7Ir8,0.0
mp-1214048,Ca4Pd,0.0
mp-1214055,Ca4Rh,0.0
mp-1214426,Ca4Rh6Pb19,0.0
mp-17185,Ca4Si3Pd4,0.0
mp-1214003,Ca4Sm2Cu3(ClO2)4,0.0
mp-1213998,Ca4Tl3O9,0.0
mp-669391,Ca4Zn2Cu3P5,0.0
mp-1227465,Ca4Zn51,0.0
mp-1227017,Ca4ZnAg3,0.0
mp-756837,Ca4Zr3TaO12,0.0
mp-28088,Ca5(AlBi3)2,0.0
mp-1213996,Ca5(BN2)3,0.0
mp-28489,Ca5(GaN2)2,0.0
mp-17985,Ca5(GaSb3)2,0.0
mp-1105294,Ca5(GePd)6,0.0
mp-649479,Ca5(InSb3)2,0.2282000000000001
mvc-14086,Ca5(MnN3)2,0.0
mp-1029899,Ca5(OsN3)2,0.0
mp-667294,Ca5(PPd)6,0.0
mp-1029860,Ca5(RuN3)2,0.0
mp-1227364,Ca5(Si2Au3)2,0.0
mp-1227183,Ca5(SiO3)6,0.0
mp-1044973,Ca5(TiS2)8,0.0
mvc-11332,Ca5(VN3)2,0.0
mp-31172,Ca5Ag3,0.0
mp-10047,Ca5As3,0.0
mp-30368,Ca5Au3,0.0
mp-571264,Ca5Au4,0.0
mp-27145,Ca5Bi3,0.0
mp-1105558,Ca5CdCu2,0.0
mp-1214169,Ca5CoPb3,0.0
mp-1198286,Ca5Cr3O12,0.0
mp-685317,Ca5Cu19As10,0.0
mvc-14837,Ca5Cu2(IrO6)2,0.0
mp-680754,Ca5CuPb3,0.0
mp-686764,Ca5FePb3,0.0
mp-1189870,Ca5Ga3,0.0
mp-1884,Ca5Ge3,0.0
mp-643912,Ca5Ge3H,0.0
mvc-13252,Ca5La10Mn14(NiO24)2,0.0
mp-743863,Ca5La7Mn7Ru5O36,0.0
mp-1094702,Ca5Mg,0.0
mp-680842,Ca5MnPb3,0.0
mp-555924,Ca5Nb5O17,0.0
mp-699041,Ca5Nd5Mn9CrO30,0.0
mp-28170,Ca5Ni15B4,0.0
mp-1193893,Ca5Ni17Ge8,0.0
mp-18360,Ca5P12Ir19,0.0
mp-10582,Ca5P12Rh19,0.0
mp-1182146,Ca5Pb3,0.0
mp-1104669,Ca5Pd2,0.0
mp-1103570,Ca5Pt2,0.0
mp-1105651,Ca5Pt3,0.0
mp-1214063,Ca5Rh,0.0
mp-793,Ca5Si3,0.0
mp-1214077,Ca5Si3O13,0.0
mp-1106280,Ca5Sn3H,0.0
mp-1214210,Ca5V3O12,0.0
mp-565819,Ca5V3O12F,3.8685000000000014
mp-2786,Ca5Zn3,0.0
mp-1227088,Ca6Ag3Ge5,0.0
mp-989399,Ca6Al2NF,0.0
mp-1214183,Ca6Al43W4,0.0
mp-721592,Ca6Al7O16,0.0
mp-1214079,Ca6Cd32Cu,0.0
mp-16916,Ca6FeN5,0.0
mp-1227148,Ca6Ge7Au15,0.0
mp-989404,Ca6In2NF,0.0
mp-743861,Ca6La2Mn7CrO24,0.0
mp-1227703,Ca6Mn3Al(SiO6)4,0.0
mvc-12222,Ca6Mn3Al2O15,0.0
mp-1227750,Ca6MnAl11,0.0
mp-1203787,Ca6MnBe4Si6HO24,0.0
mp-698723,Ca6Nd6ScMn11O36,0.0
mp-1227454,Ca6P19Rh30,0.0
mp-989582,Ca6Pb2SeN,0.0
mp-706248,Ca6Pr6Mn11CrO36,0.0
mp-989584,Ca6Sn2NO,0.0
mp-866538,Ca6Sn5S16,0.0
mp-568511,Ca7(B7Rh10)2,0.0
mp-1044962,Ca7(TiS2)8,0.0
mp-705871,Ca7Al3Si10N21,0.0
mp-30369,Ca7Au3,0.0
mp-560453,Ca7Cu(PtO6)2,0.0
mp-765523,Ca7Cu17O24,0.0
mp-10008,Ca7Ge,0.0
mp-16571,Ca7Ge6,0.0
mp-744008,Ca7La3Ti5Cr5O30,0.02590000000000004
mp-1076128,Ca7Mg(CoO3)8,0.0
mp-1099952,Ca7MgCo7CuO20,0.0
mp-1076132,Ca7MgCo7CuO24,0.0
mp-1099907,Ca7MgFeCo7O20,0.0
mp-1076139,Ca7MgFeCo7O24,0.0
mp-1099831,Ca7MgMn7FeO20,0.0
mp-1076214,Ca7MgMn7FeO24,0.0
mp-1076897,Ca7MgMn8O20,0.0
mp-1076485,Ca7MgMn8O24,0.0
mp-1076207,Ca7MgTiMn7O20,0.0
mp-1076543,Ca7MgTiMn7O24,0.0
mp-1227125,Ca7Ni(IrO6)2,0.0
mp-31158,Ca7Ni4Sn13,0.0
mp-31394,Ca7Sn6,0.0
mp-30961,Ca7Tl3N2,0.0
mp-1227114,Ca7TlN4,0.0
mp-1227090,Ca8(DySe4)3,0.0
mp-1227063,Ca8(YbSe4)3,0.0
mp-1227897,Ca8Al11Fe(Si3O13)4,0.0
mp-1190736,Ca8Al3,0.0
mp-1227789,Ca8Be5Al3(Si9O28)2,0.0
mp-1214306,Ca8In3,0.0
mp-744075,Ca8La2Ti5Cr5O30,0.0
mp-1204649,Ca8P6O29,0.0
mp-1182427,Ca9(Si3O16)2,0.04039999999999999
mp-706340,Ca9LaMn10O30,0.0
mp-686651,Ca9LaTi10O30,0.0
mp-744380,Ca9LaTi4Mn6O30,0.0
mp-706246,Ca9LaTi6Mn4O30,0.0
mp-694916,Ca9LaTi8Mn2O30,0.0
mp-694954,Ca9LaTi9MnO30,0.0
mp-1203362,Ca9Mg(PO4)7,0.0
mp-851044,Ca9Mn(PO4)7,0.0
mp-31042,Ca9Mn4Bi9,0.0
mp-1227804,Ca9Y3(CoO6)4,0.0
mp-27262,Ca9Zn4Bi9,0.0
mp-21594,Ca9Zn4Sb9,0.0
mp-983567,CaAc3,0.0
mp-1183474,CaAcAu2,0.0
mp-1183472,CaAcGa2,0.0
mp-865173,CaAcHg2,0.0
mp-985450,CaAcIn2,0.0
mp-1183488,CaAcMg2,0.0
mp-1183483,CaAcRh2,0.0
mp-1183500,CaAcTl2,0.0
mp-864962,CaAcZn2,0.0
mp-538,CaAg,0.0
mp-13270,CaAg2,0.0
mp-1096029,CaAg2Pb,0.0
mp-865729,CaAg2Sn,0.0
mp-1183511,CaAg3,0.0
mp-1041246,CaAg3P3O13,0.0
mp-5615,CaAgAs,0.01959999999999961
mp-1093571,CaAgAu2,0.0
mp-568664,CaAgBi,0.0
mp-1200102,CaAgGe,0.0
mp-984704,CaAgHg2,0.0
mp-997004,CaAgO2,0.0
mp-11214,CaAgSb,0.0
mp-1206764,CaAgSn,0.0
mp-2404,CaAl2,0.0
mp-1197130,CaAl2(Si3O10)2,0.0
mp-1194309,CaAl2(SiO5)2,0.0
mp-643941,CaAl2Si(HO2)4,4.690799999999999
mp-1227373,CaAl2Si2(ClO4)2,0.0
mp-1215045,CaAl2Si2(WO2)4,0.0
mp-1194858,CaAl2Si3(HO3)4,4.892
mp-1226903,CaAl3PSO14,0.0
mp-1749,CaAl4,0.0
mp-1227202,CaAl4(SiO3)8,0.0
mp-11350,CaAl9Co2,0.0
mp-3479,CaAl9Ni,0.0
mp-568424,CaAlAu,0.0
mp-556532,CaAlB3O7,5.380199999999999
mp-1226821,CaAlGa,0.0
mp-571039,CaAlPd,0.0
mp-1102631,CaAlPt,0.0
mp-3173,CaAlSi,0.0
mp-888,CaAs,0.0
mp-1900,CaAs3,0.0
mp-3927,CaAsAu,0.0
mp-28340,CaAsPt,0.0
mp-12723,CaAu,0.0
mp-443,CaAu2,0.0
mp-1183462,CaAu3,0.0
mp-1009695,CaB2,0.0
mp-1214282,CaB2(HO4)2,0.0
mp-28705,CaB2Rh3,0.0
mp-1213975,CaB4,0.0
mp-1214321,CaB6(HO4)3,0.0
mp-1200314,CaB8O15,0.0
mp-1238800,CaBC,0.0
mp-1206909,CaBPd3,0.0
mp-1214917,CaBe(SiO4)3,0.0
mp-1845,CaBe13,0.0
mp-1227231,CaBeGe,0.0
mp-984632,CaBeO3,0.0
mp-1227218,CaBeSi,0.0
mp-1077466,CaBi2,0.0
mp-696904,CaBi2(CO)2,0.0
mp-1043585,CaBi2(PO5)2,0.0
mp-1227361,CaBi2Br2O3,0.0
mp-772874,CaBi2O5,0.0
mp-866006,CaBi3,0.0
mp-1044049,CaBi3O7,0.0
mp-1041219,CaBi3P3O13,2.869
mp-568398,CaBiAu,0.0
mp-1096061,CaBiAu2,0.0
mp-1213974,CaBiAu4,0.0
mp-977540,CaBiPd2,0.0
mp-1183444,CaBr,0.0
mp-1213965,CaC,0.0
mp-1022724,CaC4,0.0
mp-3953,CaCO3,4.999499999999999
mp-1073,CaCd,0.0
mp-1444,CaCd2,0.0
mp-1093755,CaCd2Ag,0.0
mp-1096227,CaCd2In,0.0
mp-1105752,CaCd2Pd,0.0
mp-1183517,CaCd3,0.0