task_id,composition,band_gap
mp-1111931,K2ScHgF6,0.0
mp-1112029,K2ScHgI6,0.0
mp-1112016,K2ScInI6,1.8430000000000002
mp-643141,K2Si2Pb2O,0.0
mp-1021516,K2Sn,0.0
mp-31486,K2SnBi,0.0
mp-1080457,K2SnN6,0.0
mp-772799,K2SnPCO7,0.0
mp-558990,K2Sr(PO3)4,5.6026000000000025
mp-12626,K2SrBe2F8,7.162599999999999
mp-12161,K2SrCu(NO2)6,0.2396000000000001
mp-867362,K2SrIn7,0.0
mp-1099764,K2Ta2O5,0.0
mp-1112085,K2TaAgBr6,0.0
mp-1112083,K2TaAgCl6,0.0
mp-1110948,K2TaAgI6,0.0
mp-31363,K2TaCl6,0.0
mp-1112217,K2TaCuBr6,0.0
mp-1110903,K2TaCuI6,0.0
mp-3975,K2TaF7,5.608499999999999
mp-1112194,K2TaHgF6,0.0
mp-1111415,K2TaTlF6,0.0
mp-4377,K2TbF6,0.0
mp-755592,K2TbO3,0.0
mp-1084834,K2Tc,0.0
mp-1213027,K2Te2W3O5,0.09489999999999996
mp-6696,K2Ti2(PO4)3,0.0
mp-1112274,K2TiAgF6,0.0
mp-1111957,K2TiAuF6,0.0
mp-1112244,K2TiCuF6,0.0
mp-1111414,K2TiTlF6,0.0
mp-1205822,K2Tl6Tc,0.0
mp-1112445,K2TlAgBr6,0.0
mp-1112081,K2TlAgCl6,0.0
mp-1112078,K2TlAgI6,0.0
mp-1111585,K2TlAuBr6,0.0
mp-1112414,K2TlAuCl6,0.0
mp-1111378,K2TlAuF6,0.0
mp-1112333,K2TlAuI6,0.0
mp-1112216,K2TlCuBr6,0.0
mp-1111969,K2TlCuCl6,0.0
mp-1112168,K2TlCuF6,0.0
mp-1112026,K2TlHgBr6,0.0
mp-1112027,K2TlHgCl6,0.0
mp-1111956,K2TlHgF6,0.0
mp-1112024,K2TlHgI6,0.0
mp-1111369,K2TlPdF6,0.0
mp-1111417,K2TlRuF6,0.0
mp-1112443,K2TmAgCl6,3.454
mp-578762,K2U(MoO5)2,0.0
mp-867366,K2U2O5,0.0
mp-557249,K2UCu3S5,0.0
mp-1196558,K2V4Zn5O20,0.0
mp-1206608,K2VCl6,0.0
mp-568914,K2WCl6,0.0
mp-1112025,K2YHgBr6,0.0
mp-1112193,K2YHgCl6,0.0
mp-1112192,K2YHgF6,0.0
mp-1112022,K2YHgI6,0.0
mp-1211512,K2YSbO7,0.0
mp-565817,K2YbMoPO8,0.0
mp-1211483,K2YbSbO7,0.0
mp-677714,K2YbSn(PO4)3,0.0
mp-1224614,K2YbTi(PO4)3,0.0
mp-555652,K2Zn(SO4)2,4.398499999999999
mp-1211833,K2Zn(SO7)2,0.0
mp-1104031,K2Zn(SeO5)2,0.0
mp-1195072,K2Zn(SnSe3)2,1.5819999999999999
mp-1232329,K2Zn2Cu(SO)2,0.0
mp-1223875,K2Zn3GeAs4,0.0
mp-556333,K2ZnCu3P3O12F,0.0
mp-1077243,K2Zr,0.0
mp-1211747,K2Zr6BeCl15,0.0
mp-27585,K2Zr7Cl18,0.0
mp-1196465,K2ZrS2(O5F)2,0.1891
mp-29602,K2ZrTe3,0.41100000000000003
mp-1120730,K3(CuS)4,0.0
mp-18865,K3(FeO2)2,0.0
mp-541447,K3(FeS2)2,0.0
mp-1224651,K3(FeSe)8,0.0
mp-571068,K3(Mg10In7)2,0.0
mp-561164,K3(MoO3)10,0.0
mp-684127,K3(Na13In24)2,0.0
mp-560563,K3(PdO2)2,0.0
mp-27566,K3(PtO2)2,0.0
mp-675593,K3(VS2)5,0.0
mp-641101,K34(Zn4In17)5,0.0
mp-1184792,K3Ac,0.0
mp-976592,K3Ag,0.0
mp-1184882,K3Al,0.0
mp-1111500,K3AuBr6,0.0
mp-684709,K3B17,0.0
mp-1181745,K3B7PtO20,0.0
mp-1184864,K3Ba,0.0
mp-686204,K3Ba2Pr2(BiO5)3,0.0
mp-1184861,K3Be,0.0
mp-1206573,K3Bi2,0.0
mp-1223790,K3BrCl2,4.493399999999999
mp-1184877,K3Ca,0.0
mp-1184907,K3Cd,0.0
mp-1202778,K3Cd16,0.0
mp-1185298,K3Ce,0.0
mp-667318,K3Ce2(NO3)9,0.0
mp-976583,K3Co,0.0
mp-1184873,K3Cr,0.0
mp-1184878,K3Cu,0.0
mp-20982,K3Cu2F7,0.0
mp-1147754,K3Cu2H7,0.0
mp-1184902,K3Dy,0.0
mp-1184906,K3Er,0.0
mp-30197,K3ErCl6,5.196899999999999
mp-16597,K3ErSi2O7,3.7372000000000014
mp-758527,K3ErSi3(HO5)2,4.6339999999999995
mp-1185259,K3Eu,0.0
mp-17089,K3Eu(PO4)2,0.0
mp-1111492,K3EuCl6,0.0
mp-758551,K3EuSi3(HO5)2,0.0
mp-562289,K3EuV2O8,0.0
mp-541627,K3Fe(CN)6,0.0
mp-1201518,K3Fe5F15,0.0
mp-1111491,K3FeF6,0.0
mp-770044,K3FePCO7,3.743
mp-1193931,K3FeS3,0.0
mp-541997,K3FeSe3,0.0
mp-1184898,K3Ga,0.0
mp-680682,K3Ga13,0.0
mp-1111080,K3GaF6,5.8061000000000025
mp-1184854,K3Ge,0.0
mp-1196998,K3Ge17,0.0
mp-1224397,K3Ge7HO20,0.0
mp-1193879,K3Ge7O20,0.0
mp-720710,K3H2S2NO7,4.735799999999999
mp-1200107,K3HS3O11,5.152699999999999
mp-1184923,K3Hf,0.0
mp-1006593,K3Hf2Se11,0.0
mp-11028,K3Hg11,0.0
mp-1184912,K3Ho,0.0
mp-1185054,K3In,0.0
mp-867331,K3InAu5,0.0
mp-1184875,K3Ir,0.0
mp-20017,K3Ir(NO2)6,0.0
mp-975577,K3La(AsO4)2,3.857
mp-1184918,K3Li,0.0
mp-773089,K3Li2Nb6(PO8)3,0.0
mp-773101,K3Li2Ta6(PO8)3,0.0
mp-1197664,K3Li3P6O19,0.0
mp-735910,K3Li5Al6Si10(O5F)6,0.0
mp-773049,K3LiNb6O15,0.0
mp-1184871,K3Lu,0.0
mp-1184862,K3Mg,0.0
mp-1223920,K3MgCu2F9,0.0
mp-1184886,K3Mn,0.0
mp-540801,K3Mn(CN)6,0.0
mp-1211913,K3Mn5(Si2O5)6,0.0
mp-973974,K3Mo,0.0
mp-11801,K3N,0.0
mp-1184919,K3Na,0.0
mp-17902,K3Na(RuO4)2,0.0
mp-1076637,K3Na5V2(Mo3O10)2,0.0
mp-1076484,K3Na5V2(MoO4)6,0.0
mp-1099606,K3Na5V3Mo5O24,0.0
mp-1099938,K3Na5VMo7O24,0.0
mp-1181132,K3NaCe(CO5)3,0.012000000000000007
mp-1194433,K3NaOs2O9,0.0
mp-1184897,K3Nb,0.0
mp-1223692,K3Nb8(O5F2)2,0.0
mp-5867,K3Nb8O21,0.0
mp-1111115,K3NbF6,0.0
mp-975838,K3Nd,0.0
mp-1184896,K3Os,0.0
mp-1223624,K3PO3F2,4.557799999999999
mp-1211653,K3PO5,0.0
mp-31471,K3PbAu5,0.0
mp-1064508,K3Pd,0.0
mp-1111081,K3PdF6,0.0
mp-1185146,K3Pm,0.0
mp-975872,K3Pr,0.0
mp-1110852,K3PrF6,5.3996999999999975
mp-1200645,K3Pt2(SO4)6,0.0005999999999999892
mp-976115,K3Rb,0.0
mp-1185114,K3Re,0.0
mp-690789,K3ReH6,0.0
mp-1180789,K3Rh,0.0
mp-20364,K3Rh(NO2)6,0.0
mp-1202599,K3RhCl6O,0.0
mp-1185000,K3Ru,0.0
mp-1111078,K3RuF6,0.0
mp-1225496,K3Sb7(SeO4)3,0.0
mp-5626,K3SbTe3,1.711
mp-973535,K3Sc,0.0
mp-1110879,K3ScCl6,4.029999999999999
mp-1111079,K3ScF6,6.1629999999999985
mp-973528,K3Si,0.0
mp-976221,K3Sm,0.0
mp-1223733,K3SnSb3,0.2022
mp-973627,K3Sr,0.0
mp-1185022,K3Ta,0.0
mp-680327,K3Ta4F15,0.0
mp-757546,K3Ta8O21,0.0
mp-1111159,K3TaBr6,0.0
mp-1111330,K3TaCl6,0.0
mp-1111158,K3TaI6,0.0
mp-1185125,K3Tb,0.0
mp-1185077,K3Tc,0.0
mp-1212382,K3Tc2Cl8O3,0.0
mp-1182694,K3TeP3O17,0.0182
mp-1185172,K3Th,0.0
mp-1185189,K3Ti,0.0
mp-1204600,K3Ti4Ge3O20,0.0
mp-1194354,K3Ti4Si3O20,0.0
mp-758970,K3Ti8O17,0.0
mp-1111692,K3TiF6,0.0
mp-1185120,K3Tl,0.0
mp-976190,K3TlAu5,0.0
mp-1178147,K3TlPCO7,0.0
mp-1185140,K3Tm,0.0
mp-1211645,K3TmF6,6.493399999999999
mp-16598,K3TmSi2O7,3.7555000000000014
mp-1185213,K3U,0.0
mp-1206061,K3UF6,0.0
mp-774428,K3V14O28,0.0
mp-1111308,K3VF6,0.0
mp-973446,K3W,0.0
mp-565818,K3WS3ClO,2.777
mp-976373,K3Y,0.0
mp-1185057,K3Yb,0.0
mp-1203145,K3Yb(SO4)3,0.0
mp-1181111,K3YbB2(PO7)2,0.0
mp-1211759,K3YbF6,0.0
mp-1238763,K3YbN6,0.0
mp-16599,K3YbSi2O7,0.0
mp-1185029,K3Zn,0.0
mp-1185108,K3Zr,0.0
mp-1226025,K3Zr4Si12HO44,0.0
mp-707845,K3ZrHS(OF)5,0.0
mp-640719,K4(CoO2)7,0.0
mp-867980,K4(S2O3)5,0.2275000000000001
mp-30280,K4(TiTe3)3,0.0
mp-1203532,K4Ag18Te11,0.0
mp-1211680,K4Al2O,0.0
mp-1019788,K4Al3(SiO4)3,0.0
mp-1224039,K4BaNb5O15,0.0
mp-1211781,K4Bi,0.0
mp-1202256,K4Cd3(PO4)6,0.0
mp-705153,K4CoMo4O15,0.0
mp-561512,K4Cu4Cl10O,0.0
mp-28743,K4Cu8Te11,0.0
mp-1194519,K4Eu2U(GeO4)4,0.0
mp-1182806,K4Fe,0.0
mp-766643,K4Fe2O7,0.0
mp-1200063,K4Fe4(PO4)5,0.0
mp-31484,K4GaAu8,0.0
mp-27800,K4Ge23,0.0
mp-9201,K4Ge2Au7,0.0
mp-1211818,K4H5(SeO4)4,0.0
mp-974482,K4Hf5O12,3.268
mp-1212086,K4Hg3Ge20,0.0
mp-640312,K4In3Ge20,0.0
mp-1225988,K4In9Si14,0.0
mp-568357,K4La6OsI14,0.0
mp-1223957,K4MgCu3F12,0.0
mp-1199707,K4Mo2S4BrO20,0.0
mp-1202298,K4Mo2S4ClO20,0.0
mp-1181187,K4MoC4(NO2)4,0.0
mp-1072340,K4NO,0.0
mp-1076546,K4Na4Mo7WO24,0.0
mp-1076685,K4Na4MoW7O24,0.0
mp-1076755,K4Na4Nb3(WO4)5,0.0
mp-1099687,K4Na4Nb3W5O24,0.0
mp-1076751,K4Na4NbW7O24,0.0
mp-757862,K4Nb15O24,0.0
mp-1181103,K4NiP6O25,0.0
mp-28424,K4P3,0.0
mp-685901,K4Pt2I9,0.0
mp-1199289,K4RuC6(N3O)2,0.0
mp-531,K4Si23,0.0
mp-1211830,K4Sn20Hg3,0.0
mp-13909,K4Sn23,0.0
mp-720494,K4TeP4(HO2)10,3.584
mp-1190669,K4Ti4I12O,0.0
mp-1194764,K4U3(AsO8)2,1.8359999999999999
mp-698623,K4W11O35,0.0
mp-1203529,K4Zn(P3O11)2,0.0
mp-1103814,K5(CN2)3,0.0
mp-30189,K5(DyI4)3,0.0
mp-676371,K5(Mo6S7)4,0.0
mp-1211616,K5(TmI4)3,0.0
mp-685089,K57Se34,0.0
mp-1224806,K5AlCr4(MoO4)10,2.7560000000000002
mp-1223503,K5As4,0.0
mp-1223773,K5Bi4,0.0
mp-704908,K5CeCo2(NO2)12,0.0
mp-683928,K5CeCu2(NO2)12,0.0
mp-687255,K5CeFe2(NO2)12,0.0
mp-704967,K5CeNi2(NO2)12,0.0
mp-605935,K5Eu2Si4O13F,0.0
mp-30718,K5Hg7,0.0
mp-1196816,K5In3F14,4.628299999999999
mp-1211883,K5In4(Ge3As7)2,0.0
mp-571021,K5InPb8,0.0
mp-1097055,K5La2,0.0
mp-1203051,K5Li2EuF10,0.0
mp-703272,K5NO4,0.0
mp-1099943,K5Na3Nb4(WO6)4,0.0
mp-1076481,K5Na3Nb5(WO8)3,0.0
mp-1099913,K5Na3Nb6(WO10)2,0.0
mp-1076412,K5Na3Nb6(WO12)2,0.0
mp-1076894,K5Na3Nb7WO20,0.0
mp-1099622,K5Na3Nb7WO24,0.0
mp-1076768,K5Na3Nb8O20,0.0
mp-1076895,K5Na3Ta2Nb6O20,0.0
mp-1077704,K5Na3Ta3Nb5O20,0.0
mp-1099857,K5Na3Ta4Nb4O20,0.0
mp-1100247,K5Na3Ta5Nb3O20,0.0
mp-1099903,K5Na3Ta6Nb2O20,0.0
mp-1100141,K5Na3Ta7NbO20,0.0
mp-1076887,K5Na3TaNb7O20,0.0
mp-1224281,K5Nb16(O5F2)4,0.0
mp-21613,K5Pb24,0.0
mp-694852,K5RbZn4Sn5S17,1.612
mp-30021,K5Sb4,0.0
mp-8447,K5Ti3F14,0.0
mp-557468,K5V3F14,0.0
mp-687247,K5YCo2(NO2)12,0.0
mp-566082,K5Yb(MoO4)4,0.0
mp-1224773,K6As8O19,0.0
mp-1224134,K6Bi6O19,0.0
mp-680728,K6Fe24S26Cl,0.0
mp-532767,K6LiFe24S26Cl,0.0
mp-1198684,K6Mo7O34,0.0
mp-1198979,K6Na14MgTl18,0.026600000000000186
mp-1211808,K6Na14Tl18Hg,0.0
mp-1198295,K6Na14Tl18Zn,0.0
mp-733675,K6Na15Tl18H,0.0
mp-1212659,K6Na2Fe7O38,0.0
mp-1211780,K6Na4Tl13,0.0
mp-863370,K6Nb11O30,0.0
mp-1227271,K6Rh2(C4O11)3,0.0
mp-1224566,K6Sb14Se6O25,0.0
mp-571066,K6Sn25,0.0
mp-1205026,K6Ta3O8F13,0.0
mp-756541,K6YO4,0.0
mp-683975,K6Yb3(PS4)5,0.0
mp-757202,K7(Bi3O8)3,0.0
mp-1204678,K7(FeS2)5,0.0
mp-685514,K7(Mo9S11)4,0.0
mp-676920,K7(Si2Te5)4,0.0
mp-1224221,K7Be12(PO4)12,0.0
mp-720215,K7H12Pt4C16(N8O3)2,0.0
mp-1224131,K7Hg31,0.0
mp-1223973,K7Ti8(PO4)12,0.0
mp-1095551,K8AsO3,0.0
mp-1102773,K8BiO3,0.0
mp-1223602,K8CaTe6,0.0
mp-582929,K8In11,0.0
mp-1185277,K8Li31Al8O32,0.0
mp-782640,K8Li3Cr4O16,0.0
mp-762898,K8Li9(FeO4)4,0.0
mp-1019799,K8NO3,0.0
mp-1019801,K8PO3,0.0
mp-1223581,K8Sb2Te,0.0
mp-1102223,K8SbO3,0.0
mp-1223570,K8SrTe6,0.0
mp-569570,K8Tl11,0.0
mp-1212020,K8Zr6MnBr20,0.044700000000000184
mp-1196507,K9(FeO4)2,0.0
mp-676601,K9(Mo6S7)8,0.0
mp-761779,K9(WO3)20,0.0
mp-21946,K9Co2S7,0.0
mp-555060,K9Eu3Si12(O16F)2,0.0
mp-1223685,K9NaTl13,0.0
mp-1185032,KAc3,0.0
mp-998553,KAgBr3,0.0
mp-998750,KAgCl3,0.0
mp-976229,KAgO3,0.0
mp-1223586,KAl(SiO3)3,0.0
mp-1211839,KAl2Si4(HO6)2,0.0
mp-1211755,KAl2Si4O11,0.0
mp-1212433,KAl3(P2O9)4,0.0
mp-1106382,KAl3(SO7)2,0.0
mp-1211756,KAlCO5,0.0
mp-1211735,KAlFe2F2,0.0
mp-1097006,KAlH3,0.0
mp-1103524,KAlN4,0.2022
mp-1184936,KAlO3,0.0
mp-1223477,KAs2Rh,0.0
mp-30401,KAu2,0.0
mp-1298,KAu5,0.0
mp-1112174,KAuBr3,0.0
mp-1110854,KAuCl3,0.0
mp-1111868,KAuF3,0.0
mp-1184942,KAuO3,0.0
mp-9881,KAuSe,1.8159999999999998
mp-1059907,KB,0.0
mp-1076,KB6,0.0
mp-631536,KBIr2,0.0
mp-1223499,KBa(AgTe2)2,0.0
mp-1223659,KBa(Fe2Se3)2,0.0
mp-1223517,KBa(FeAs)4,0.0
mp-1223518,KBa2(BiO3)3,0.0
mp-1223567,KBa2(FeAs)6,0.0
mp-1223506,KBa2Bi2O7,0.0
mp-1223544,KBa2Bi2O9,0.0
mp-676664,KBa2DyBi2O9,0.0
mp-1223493,KBa2Nb3O9,0.0
mp-631513,KBa2Re,0.0
mp-1185155,KBa3,0.0
mp-1223500,KBa3(BiO3)4,0.0
mp-1223625,KBa3(FeAs)8,0.0
mp-567061,KBa3Ca4V7Cu3O28,0.0
mp-1223593,KBa3Y2(Co3O8)2,0.0
mp-1223626,KBa4(FeAs)10,0.0
mp-706815,KBa7Al15Si17O64,4.152299999999999
mp-1223585,KBaC20,0.0
mp-1097243,KBaHg2,0.0
mp-1223538,KBaN3,0.0
mp-1213447,KBaNaCaTi4Fe8Si8(O19F)2,0.0
mp-973447,KBaO3,0.0
mp-962073,KBaSn,0.0
mp-18892,KBaVO4,3.979
mp-560431,KBe(PO3)3,5.558199999999999
mp-973396,KBeO3,0.0
mp-631464,KBePt,0.0
mp-1184943,KBi3,0.0
mp-1211670,KBi3F10,4.461399999999999
mp-1178144,KBiPCO7,0.0
mp-1223510,KBiPb,0.0
mp-23645,KBiS(ClO2)2,4.1789999999999985
mp-1185135,KBr3,0.0
mp-1072274,KC2,0.0
mp-28930,KC8,0.0
mp-1211608,KCN2,0.0
mp-693620,KCa2Be2Al(Si2O5)6,4.868799999999999
mp-1185070,KCa3,0.0
mp-699567,KCa9Co(PO4)7,0.0
mp-1180993,KCaAsO12,0.0
mp-631619,KCaNi2,0.0
mp-982885,KCaO3,0.0
mp-397,KCd13,0.0
mp-1184962,KCd3,0.0
mp-1080452,KCd4As3,0.0
mp-1080467,KCd4P3,0.0
mp-553914,KCdCu7Se2Cl9O8,0.0
mp-1211584,KCdN3,0.0
mp-1184992,KCdO3,0.0
mp-1018652,KCdSb,0.0
mp-1185051,KCe3,0.0
mp-38077,KCe5S8,0.0
mp-1212465,KCeAgTe4,0.0
mp-613927,KCeCuTe4,0.0
mp-1223451,KCeF4,0.0
mp-1099106,KCeMg14,0.0
mp-1040240,KCeMg30O32,0.0
mp-7329,KCeS2,0.0
mp-1185148,KCl3,0.0
mp-568906,KCoAu3(CN)6,0.0
mp-1001793,KCoCl3,0.0
mp-1223456,KCoCuS2,0.0
mp-1029444,KCoN,0.0
mp-1184947,KCoO3,0.0
mp-773502,KCoPCO7,0.0
mp-1211679,KCr(MoO4)2,2.744
mp-1224192,KCr20O40,0.0
mp-1180836,KCr2Fe3O14,0.0
mp-1103869,KCr5Te8,0.0
mp-998397,KCrCl3,0.0
mp-566698,KCrF3,1.9369999999999998
mp-561183,KCrF6,1.3980000000000001
mp-1029673,KCrN2,0.0
mp-1076732,KCrO3,0.0
mp-1147571,KCu2GeS4,0.0
mp-642811,KCu2H2(SeO5)2,0.0
mp-1223515,KCu2H3(SO5)2,0.41100000000000003
mp-1180871,KCu3(AsO5)2,0.0
mp-555595,KCu3S2ClO9,0.0
mp-559343,KCu4(PO4)3,0.0
mp-27677,KCu4S3,0.0
mp-10092,KCu4Se3,0.0
mp-653840,KCu7TeS5ClO24,0.0
mp-555901,KCuCO3F,0.0
mp-669347,KCuF3,0.0
mp-1147553,KCuIO6,0.0
mp-649472,KCuPO4,0.0
mp-1211599,KDyBr3,0.0
mp-1206220,KDyI3,0.0
mp-1184954,KDyO3,0.0
mp-554615,KEr(PO3)4,5.3733999999999975
mp-16560,KEr2CuSe4,0.944
mp-558238,KEr2F7,6.904599999999999
mp-973830,KErO3,0.0
mp-1211491,KEu(CO3)2,0.0
mp-624928,KEu(CuTe2)2,0.0
mp-1097997,KEu(GeO3)2,0.0
mp-566325,KEu(MoO4)2,0.0
mp-560292,KEu(PO3)4,0.0
mp-640227,KEu(WO4)2,0.0
mp-1211760,KEu2Cl7,0.0
mp-680171,KEu2CuS6,0.0
mp-561529,KEu2Si4O10F,0.0
mp-1185115,KEu3,0.0
mp-646548,KEuAsS3,0.4920000000000001
mp-1211862,KEuF4,0.0
mp-768949,KEuO2,0.0
mp-10382,KEuPSe4,0.0
mp-555949,KEuPdO3,0.0
mp-1018137,KEuS2,0.0
mp-1211712,KEuTiO4,0.0
mp-1095521,KF5,0.0
mp-1097017,KFe,0.0
mp-1103886,KFe2(MoO5)2,0.0
mp-1223730,KFe2F6,0.0
mp-22035,KFe2S3,0.0
mp-1095516,KFe2Se3,0.0
mp-863293,KFe3(PO6)2,0.0
mp-1180949,KFe3(SO7)2,0.0
mp-1224576,KFe6H12S4O29,0.0
mp-1223459,KFeAs2,0.0
mp-23348,KFeBr3,0.05509999999999994
mp-1223472,KFeCuS2,0.0
mp-1223485,KFeCuSe2,0.0
mp-631274,KFeP,0.0
mp-769579,KFePCO7,0.0011999999999999784
mp-3827,KFeS2,0.0
mp-9884,KFeSe2,0.0
mp-1223522,KFeSeS,0.0
mp-631396,KFeTc2,0.0
mp-1078864,KGa,0.0
mp-695655,KGaBP2H3O10,0.0
mp-555120,KGaCuF6,0.0
mp-9332,KGaPO4F,4.108099999999999
mp-1184987,KGdO3,0.0
mp-696886,KH(CN2)3,0.0
mp-24132,KH18RuN6(ClO2)4,0.0
mp-1184938,KH3,0.0
mp-1198088,KH3CO6,4.156499999999999
mp-1223712,KH8WN2(OF)3,3.851
mp-1021313,KHfMg6,0.0
mp-1031039,KHfMg6O7,0.0
mp-631296,KHfNi,0.0
mp-998227,KHfO3,0.0
mp-631525,KHg2B,0.0
mp-1185099,KHg3,0.0
mp-1193208,KHg6,0.0
mp-7420,KHgAs,0.0
mp-567381,KHgC2,0.0
mp-1202279,KHoF4,6.892399999999999
mp-1184944,KHoO3,0.0
mp-1147640,KIO2,0.0
mp-567106,KIn(WO4)2,4.315799999999999
mp-1185104,KIn3,0.0
mp-22481,KIn4,0.0
mp-571263,KIn9Co2,0.0
mp-569886,KIn9Ni2,0.0
mp-1112169,KInI3,0.0
mp-974734,KInO3,0.0
mp-17966,KInP2O7,3.8447000000000013
mp-639811,KIrO3,0.0
mp-1147752,KLa(CuO2)2,0.0
mp-571662,KLa(PSe3)2,1.9747
mp-1211557,KLa2Ag3Te8,0.0
mp-973250,KLa3,0.0
mp-1223525,KLa7(CuO4)4,0.0
mp-1211368,KLaCuTe4,0.0
mp-1099108,KLaMg14,0.0
mp-775511,KLi(WO3)6,0.0
mp-558628,KLi2BO3,3.999
mp-1185026,KLi3,0.0
mp-771795,KLi4FeO5,0.0
mp-556902,KLi4NbO5,3.7769999999999997
mp-14466,KLi6IrO6,0.0
mp-1211355,KLiAl2Si4(O5F)2,0.0
mp-1031367,KLiMg6O7,0.0
mp-1184939,KLiO3,0.0
mp-767674,KLiSb3O8,0.0
mp-1211614,KLiYb2(MoO4)4,0.0
mp-1184941,KLuO3,0.0
mp-1223508,KLuTa2O7,2.1919999999999997
mp-1180869,KMg(CO5)2,0.0
mp-1185536,KMg149,0.0184000000000002
mp-1035836,KMg14BO15,1.5430000000000001
mp-1035674,KMg14CO16,0.0
mp-1099088,KMg14Co,0.0
mp-1099101,KMg14Si,0.0
mp-1211428,KMg2(PO4)2,0.0
mp-1184990,KMg3,0.0
mp-1040243,KMg30WO32,3.208500000000001
mp-1223539,KMg3Al(SiO4)3,0.0
mp-1099257,KMg3O4,0.0
mp-1031308,KMg6BO8,0.0
mp-1030964,KMg6CO8,0.0
mp-1021393,KMg6Mo,0.0
mp-1021311,KMg6Nb,0.0
mp-1022109,KMg6Ni,0.0
mp-1099305,KMg6Sb,0.0
mp-1021389,KMg6Si,0.0
mp-1099295,KMg6Sn,0.0
mp-1021423,KMg6Ti,0.0
mp-1021848,KMg6V,0.0
mp-1099312,KMg6W,0.0
mp-1099272,KMg6Zn,0.0
mp-1022584,KMg6Zr,0.0
mp-1184960,KMgO3,0.0
mp-1196258,KMn(CN)3,0.0
mp-1080221,KMn16O32,0.0
mp-704116,KMn2Zn3(Si2O5)6,0.0
mp-1003316,KMn4O8,0.0
mp-761493,KMn6O12,0.0
mp-1016153,KMn8O16,0.0
mp-21847,KMnAs,0.0
mp-1018739,KMnBi,0.0
mp-1077452,KMnCl,0.0
mp-698214,KMnH24(C7N4)2,0.0
mp-1223556,KMnH5(SO5)2,4.380599999999999
mp-1184948,KMnO3,0.0
mp-631254,KMnRu,0.0
mp-4233,KMnSb,0.0
mp-1207101,KMnSe2,0.0
mp-10286,KMnTe2,0.0
mp-1029815,KMoN2,0.0
mp-1040469,KMoO3,0.0
mp-631329,KMoRu2,0.0
mp-1058689,KN,0.0
mp-1071868,KN2,0.0
mp-1076831,KNa(MoO3)2,0.0
mp-1076224,KNa(WO3)2,0.0
mp-570786,KNa2,0.0
mp-1093633,KNa2As,0.0
mp-863707,KNa2Bi,0.0
mp-851120,KNa2Li3Zr2(Si2O5)6,0.0
mp-1111009,KNa2NbF6,0.0
mp-1097400,KNa2P,0.0
mp-1093762,KNa2Pb,0.0
mp-1111008,KNa2PdF6,0.0
mp-1111006,KNa2RuF6,0.0
mp-1111004,KNa2TaF6,0.0
mp-1111003,KNa2TiF6,0.0
mp-1099868,KNa3V2(MoO5)2,0.0
mp-1099867,KNa3V2(MoO6)2,0.0
mp-1182192,KNa4Te2PdO22,0.0005999999999999892
mp-1099956,KNa7V6(MoO10)2,0.0
mp-1076351,KNa7V6(MoO12)2,0.0
mp-1099932,KNa7V6Cr2O24,0.0
mp-1076665,KNa7V7CrO24,0.0
mp-1076222,KNa7V7MoO24,0.0
mp-10942,KNaLaNbO5,3.6387000000000014
mp-1031453,KNaMg6O7,0.0
mp-973968,KNaO3,0.0
mp-1201904,KNaSi5SnO16,0.0
mp-556934,KNaSiF6,6.9804999999999975
mp-1173011,KNb3F9,0.0
mp-549490,KNb4O5F,0.0
mp-22826,KNb8O14,0.0
mp-1223310,KNbO2F,0.0
mp-1211814,KNbPO5,0.0
mp-982195,KNd3,0.0
mp-1206274,KNd3O6,0.0
mp-1212294,KNi(BrO2)3,0.0
mp-1223496,KNi2H3(SeO5)2,2.649
mp-1198941,KNi3P3O11,3.8889000000000014
mp-1147706,KNiTeO6,0.0
mp-865937,KNpAgS3,0.0
mp-867312,KNpCuS3,0.0
mp-1185015,KNpO3,0.0
mp-1866,KO2,0.0
mp-1080550,KO2F,0.0
mp-1106308,KOsBr4NO2,0.0
mp-1185009,KOsO3,0.0
mp-1223403,KP2(W3O11)2,0.0
mp-1197171,KP2H5O8,5.6008999999999975
mp-1212211,KP4(CO2)4,0.0
mp-1223550,KP4N3O16,0.0
mp-1211912,KPHO3,5.299799999999999
mp-1102561,KPO4,0.0
mp-866637,KPPdS4,1.477
mp-21170,KPb2,0.0
mp-1185202,KPb3,0.0
mp-1184935,KPbO3,0.0
mp-9061,KPdF3,0.0
mp-972985,KPdO3,0.0
mp-1185063,KPm3,0.0
mp-1185158,KPr3,0.0
mp-568343,KPr6OsI10,0.0
mp-1185053,KPt3,0.0
mp-1211302,KPt3O4,0.0
mp-1182323,KPtBr3NO,0.0
mp-1029347,KPtN,0.0
mp-1103104,KPtNCl3,0.0
mp-1104149,KPtNCl3O,0.0
mp-974842,KPtO3,0.0
mp-1192711,KPtS2O9,0.0
mp-1211482,KPu2F9,0.0
mp-863708,KPuO3,0.0
mp-1223357,KRb(Fe2S3)2,0.0
mp-1223353,KRb(InAu2)4,0.0
mp-1114125,KRb2AuBr6,0.0
mp-560385,KRb2CoF6,0.0
mp-1114042,KRb2EuCl6,0.0
mp-1113891,KRb2NbF6,0.0
mp-555464,KRb2NiF6,0.0
mp-1113755,KRb2PdF6,0.0
mp-1113753,KRb2RuF6,0.0
mp-6074,KRb2TiF6,0.0
mp-973508,KRb3,0.0
mp-1223311,KRbCl2,4.906499999999999
mp-1034150,KRbMg14O15,2.014
mp-1031270,KRbMg6O7,0.0
mp-1097334,KRbNa2,0.2325
mp-756889,KRbO,0.0
mp-1184957,KRbO3,0.0
mp-1080849,KReN2,0.0
mp-1211450,KReO2,0.0
mp-973471,KReO3,0.0
mp-1080622,KRhF6,0.0
mp-975134,KRhO3,0.0
mp-1202772,KRu2C4(ClO4)2,0.004899999999999989
mp-1029978,KRuN2,0.0
mp-1211539,KRuO2,0.0
mp-973958,KRuO3,0.0
mp-1201474,KSO4,0.0
mp-1195296,KSb(SO4)2,4.2219999999999995
mp-1206096,KSb3,0.0
mp-1199035,KSbAs(O2F)2,0.0
mp-556888,KSbF6,4.912599999999999
mp-756953,KSbPCO7,0.0
mp-631466,KSc2Co,0.0
mp-28439,KSc2F7,5.7060999999999975
mp-631408,KSi2Hg,0.0
mp-772843,KSiPCO7,5.167999999999998
mp-631318,KSiTc2,0.0
mp-1211509,KSm2I5,0.0
mp-1197477,KSm2N7,0.0
mp-1185088,KSm3,0.0
mp-1207051,KSm3O6,0.0
mp-1103373,KSn2,0.0
mp-1185151,KSn3,0.0
mp-1211928,KSn4S3ClO12,0.0
mp-1097015,KSnI3,1.9409999999999998
mp-631322,KSnOs,0.0
mp-558762,KSnS2,0.0
mp-571016,KSnSe2,0.0
mp-1223282,KSr(BiO3)2,0.0
mp-1223333,KSr2(BiO3)3,0.0
mp-1211382,KSr2Cl5,5.233499999999999
mp-1223530,KSr2Nb4FeO15,0.0
mp-1185006,KSr3,0.0
mp-744044,KSr3La8Mn12O36,0.0
mp-1205548,KSrI3,3.7310000000000003
mp-1099307,KSrMg6,0.0
mp-1184959,KSrO3,0.0
mp-1223256,KTa2O6,0.0
mp-541373,KTa3CuO9,0.0
mp-631314,KTaPt,0.0
mp-29788,KTb3F12,0.0
mp-623088,KTbF5,0.0
mp-981313,KTbO3,0.0
mp-1211356,KTcO2,0.0
mp-973267,KTcO3,0.0
mp-1195914,KTe2O9,0.0
mp-1185106,KTe3,0.0
mp-3553,KTeAu,0.0
mp-1184940,KTeO3,0.0
mp-1223334,KTeO5,0.0
mp-1185144,KTh3,0.0
mp-1212186,KThN5O17,0.20740000000000008
mp-1211240,KThTi2O6,0.0
mp-757418,KTi16O32,0.0
mp-631473,KTi2Bi,0.0
mp-1203037,KTi2H2F11,4.4239999999999995
mp-541317,KTi3Si2P6O25,0.0
mp-765472,KTi6O12,0.0
mp-567718,KTiBr3,0.0
mp-568270,KTiCl3,0.0
mp-21639,KTiF4,0.0
mp-640578,KTiI3,0.0
mp-760376,KTiO3,0.0
mp-1018051,KTiS2,0.0
mp-1223231,KTl(CoSe)4,0.0
mp-1211511,KTl2,0.0
mp-866169,KTl2Bi,0.0
mp-862783,KTl3,0.0
mp-1212766,KTl3O6,0.0
mp-1223476,KTl4(CoSe)10,0.0
mp-1096121,KTlHg2,0.0
mp-1110822,KTlI3,0.0
mp-984454,KTlO3,0.0
mp-1211295,KTmBr3,0.0
mp-570303,KTmI3,0.0
mp-1184949,KTmO3,0.0
mp-1224052,KU3AsO15,0.0
mp-13349,KUCuS3,0.0
mp-582421,KUCuSe3,0.0
mp-1211927,KUHSeO7,0.0
mp-4126,KUO3,0.4454000000000001
mp-1196442,KUSeO8,0.05290000000000007
mp-1204086,KV2(PO5)3,0.0
mp-699565,KV3Cu5O13,0.0
mp-767780,KV4O10,0.0
mp-973666,KV5Se8,0.0
mp-1223516,KVNiOF6,0.0
mp-735504,KVPHO6,2.422
mp-705784,KW5O13,0.0
mp-1211264,KWCl6,0.0
mp-566462,KWNClF5,3.5069999999999997
mp-1040472,KWO3,0.0
mp-1147560,KY(CuO2)2,0.0
mp-18661,KY(PO3)4,5.328399999999999
mp-6847,KY2Ti2S2O5,0.0
mp-1213463,KY3O6,0.0
mp-1184945,KYO3,0.0
mp-9805,KYb(CO3)2,0.0