task_id,pretty_formula,band_gap
mp-613518,K2SbF5,4.3263
mp-616026,Sr3InP3,0.8115999999999999
mp-616196,OsC3I2O3,1.7713
mp-616514,S(IN)2,1.4269999999999998
mp-616581,TlCr4BiO14,2.0838
mp-616734,Rb2Cr2O7,2.7864
mp-617022,TeMoCl7O,2.4982
mp-617233,Rb2Cr4O13,1.768
mp-621864,Si4Mo2P4O23,2.6819
mp-621927,Os3C10SO10,2.8238000000000003
mp-621943,Re2C3I4O3,0.4427000000000001
mp-621944,Os3C12(IO6)2,2.1291
mp-621953,ReC4IO4,2.3533
mp-621981,TlAg(CN)2,2.6981
mp-622196,KHgC3(SN)3,1.9119
mp-622273,SnHg2(SBr)2,2.3254
mp-622491,Pb13(Br3O5)2,2.0074000000000005
mp-649033,Sr5(InSb3)2,0.053300000000000125
mp-649616,Pd(XeF8)2,1.4046000000000003
mp-652260,Rb5LiSi2NiO8,3.273
mp-652695,Re(SeCl6)2,0.8807999999999999
mp-669376,KU2F9,0.2237
mp-669498,K2Pt(NO2)4,1.9671
mp-669508,TaP2NCl12,2.8674
mp-672200,RbC2N3,4.1966
mp-672209,RbCS(OF)3,5.4737
mp-672212,NaNb13O33,1.6963
mp-672972,Sn(PO3)3,2.3452
mp-672976,LiSn(PO3)3,3.862600000000001
mp-673023,LiBi(PO3)4,4.8169
mp-673669,In4(SnO4)3,0.8886000000000003
mp-673696,Lu4Zr3O12,4.2011
mp-673702,Na2CeO3,1.9759
mp-674297,NaNO3,2.5717
mp-674324,Sn7(SBr5)2,2.014
mp-674357,SmAlF5,0.5566999999999993
mp-674361,LiNbO3,2.9621
mp-674363,Zr3Sc4O12,3.9473
mp-674506,NdPb7F17,4.4197000000000015
mp-674521,Dy2TiO5,2.8711999999999995
mp-674897,SrNd3AlCuO8,0.19730000000000025
mp-674947,Zr2N2O,1.6647000000000003
mp-674972,Rb6Pb5Cl16,3.1411
mp-675048,Sr3Nd4O9,3.1139
mp-675069,LiNbO3,3.0231000000000003
mp-675093,Hf2N2O,2.0867999999999998
mp-675132,K6InP3,0.7462000000000002
mp-675169,Bi14SO24,1.1041
mp-675275,Tl2CuF3,1.7879
mp-675284,Lu2TiO5,2.4391
mp-675309,Mg3(AsO4)2,2.0396999999999994
mp-675416,Sr4Nb2O9,3.0104000000000006
mp-675469,Zr3Sc4O12,3.9744
mp-675506,Nb6(Pb2O5)5,0.3586999999999998
mp-703528,RbP(HO2)2,5.184
mp-703542,CdH8(NO5)2,3.5406000000000004
mp-703567,TiH12N2(O2F3)2,3.8263
mp-704109,SrFe3P3O13,2.0126
mp-704125,Nd2Zr3(MoO4)9,3.4865
mp-704197,Li2Mo(PO4)2,1.6946
mp-704488,Th(MoO4)2,2.7906
mp-704544,ThV2O7,2.6022
mp-705588,Fe8O9,1.1978000000000004
mp-705746,Ti3Fe5O12,0.9831
mp-705801,Sm3MoO7,1.7632999999999996
mp-705884,LiFePHO5,2.327
mp-706225,Sr3LaMn2(WO6)2,1.5598999999999998
mp-706231,NaSr9Fe5(MoO6)5,0.5036
mp-706268,BaAlSi5N7O2,1.5107
mp-706273,KH(IO3)2,3.4639999999999995
mp-706277,Li10Si(PSe6)2,1.3277
mp-706386,ZrH6O3F4,5.382999999999999
mp-706405,CdP2(HO2)4,0.5767
mp-706444,Zn3P2(H2O3)4,3.7118
mp-706504,Li2W2O7,3.7139
mp-706518,TlCrO4,1.8656
mp-706543,BaP2(HO2)4,4.793
mp-706658,Mg3P2(H22O15)2,4.7868
mp-706995,ZnCoH18N6Cl5,2.6896
mp-707060,NbCl4F,2.5076
mp-707182,UAsH9O10,2.5299
mp-707276,TeH9SN2O5F3,4.267
mp-707294,ZnP2H15C5NO9,4.7839
mp-707311,ZnPH3O5,4.088
mp-707349,RbB6H8O7,2.2325
mp-707772,TeP2H16N2O13,3.7525
mp-707821,Ru3C10I2O9,1.9618
mp-707900,PrH20S4N5O16,5.2026
mp-707941,Na3H(SO4)2,5.1609
mp-707953,ZnP2H11C2NO8,4.4996
mp-707960,ZnH12C2(N3Cl2)2,4.6886
mp-707977,AlPO4,5.5406
mp-707985,K3Na3TeP6(HO4)6,3.1763
mp-754837,Hf2N2O,2.436
mp-754885,SrCaI4,3.6192
mp-754999,SrLaCl5,3.4172
mp-755020,SrCa2I6,3.5536000000000003
mp-755083,BaYCl5,4.5011
mp-755393,SrLaI5,2.0461
mp-755511,Y2Hg2O5,1.6972
mp-755512,Sm3NbO7,2.843
mp-755598,Ag2TeO4,0.0036000000000000476
mp-755621,BaNb3NO7,1.5507000000000002
mp-755698,HfP2O7,5.3149
mp-755705,SrLaI5,2.3508
mp-755757,Li2Sn(BO3)2,2.3637
mp-755770,Ba2LaI7,1.8566000000000005
mp-755776,Rb4SiO4,2.5281
mp-755943,CaPbI4,2.6263
mp-755954,BaSr2I6,3.6181
mp-755977,CaPbI4,2.7905
mp-755980,SrCaI4,3.8183
mp-756136,CaPbI4,2.6676
mp-756313,CaPbI4,3.0673
mp-756624,Ba2SrI6,3.9756
mp-756745,BaLaI5,2.1331
mp-756746,Rb4PbO4,1.5927000000000002
mp-761745,SrCd2H16(Br3O4)2,2.8586
mp-761755,LiCu(PO3)3,0.1024999999999998
mp-761809,RbHoHS2O9,0.2238
mp-761811,V2Co(HO2)4,2.051
mp-761814,LiCoPO4,2.5855
mp-761820,LiFeSi3O8,3.1604
mp-761821,LiCoPO4,2.9087000000000005
mp-761822,LiCoPO4,2.5252
mp-762530,LiFePO4,3.4999
mp-762532,Fe2C2O7,2.2067
mp-762534,Li2Fe2(SiO3)3,3.0875
mp-762545,Li2FeSiO4,2.7797
mp-762558,Li2Fe(PO3)5,1.5992
mp-762561,LiFeP2O7,2.5368
mp-762563,NiP4H16(NO8)2,4.9438
mp-762568,Li2Mn(PO4)2,0.6234000000000002
mp-762587,LiFeSiO4,2.8554000000000004
mp-762613,Li2Fe2Si2O7,2.8384000000000005
mp-762614,Li2TiMn3O8,0.9567
mp-762629,LiFeP2O7,1.9942
mp-762638,LiFeSiO4,2.1283
mp-762640,LiFe(PO3)4,2.6513
mp-762641,LiFe(PO3)3,4.0098
mp-762646,LiFeSiO4,2.1636
mp-762674,LiFe4(PO4)3,3.164
mp-762728,Li3Fe2(PO4)3,2.4232
mp-762769,Li3Mn(PO4)2,1.2506
mp-762846,Li3Fe2(PO4)3,2.2006
mp-762849,VH10(CO5)2,2.9130000000000003
mp-763180,FeOF,1.5808999999999995
mp-763227,LiMnF4,1.2802999999999998
mp-763230,Li9Cr4(BO3)8,0.4782000000000001
mp-763235,LiMnPO4F,0.9038
mp-763242,V6O5F19,1.8984
mp-763251,CoP4O11,3.1738
mp-763258,FeP4O11,3.7104
mp-763269,NiP4O11,4.8551
mp-764715,V2OF5,1.5907
mp-764720,LiFe2(BO3)2,1.8001999999999998
mp-764725,Li7V4O11F,1.0158
mp-764729,Li7VO5F,1.8165
mp-764737,Li3V2(O2F)2,0.5607000000000002
mp-764747,FeOF,0.7544999999999997
mp-765460,LiCoPO4,2.7054
mp-765639,Sm11Y5O24,3.8606
mp-765640,Sm3Ta17O47,2.3251
mp-765672,V6O5F19,1.9326
mp-765884,Zr15VO32,1.7356000000000005
mp-769021,Na2CuO2,0.06790000000000007
mp-769040,Li5BiO4,2.4426
mp-769147,Y2(SeO4)3,3.8169
mp-769171,SiGeO3,2.8185
mp-769207,Y2(SeO4)3,3.0802
mp-769213,Dy2(SeO4)3,3.0307000000000004
mp-769252,Sr3Ta2O8,4.082
mp-769572,LiAlVO4,1.4085999999999994
mp-769573,LiTiVO4,1.4748000000000006
mp-769577,Li2VCr3O8,0.8100999999999998
mp-769578,Li4V2C4SO16,0.6354
mp-769601,LiVSO4F3,1.3764
mp-769618,Ni4P2O9,2.2332
mp-769650,Zr2Bi2O7,3.1127
mp-772160,SrLaI5,2.1847
mp-772256,LiVPO5,1.605
mp-772272,Li2Cr2O7,2.5126
mp-772273,Li2MnH4(SO5)2,4.2489
mp-772282,Sb4I2O5,1.9298
mp-772297,Li2Cr2O7,1.1657
mp-772451,Li2Mn3(PO4)3,0.4490999999999996
mp-772489,Lu2WO6,2.8266000000000004
mp-772511,Li4Co3Sn5O16,0.5381
mp-772516,LiCoPO4,2.8169
mp-772529,Y2W2O9,3.1880999999999995
mp-772564,NiH8(CO5)2,0.2829000000000001
mp-772572,Rb6Co2O7,1.1372
mp-772579,La2WO6,3.4921999999999995
mp-772582,Sr3W2O9,2.8235
mp-772586,Li2Cr2O7,2.4504
mp-772587,Sr4Li4Nb5FeO20,1.255
mp-772591,Li2Mn2Si2O7,2.4605
mp-772602,NaLi5Fe2P2(CO7)2,4.0463
mp-772610,Ho2(SeO4)3,3.0062
mp-772627,Ho2(WO4)3,3.9244
mp-772630,Li3V(BO3)2,2.8342
mp-772633,SrSc2O4,4.035
mp-772672,Sm2V2O7,1.3499000000000003
mp-772704,CrP4O11,2.4494
mp-772862,BaSr2I6,3.4355
mp-772882,Dy2Ge2O7,3.3259
mp-772925,Li4Ti5O12,3.0153
mp-772959,Er2P4O13,5.477
mp-773074,LiZr2(PO4)3,4.3898
mp-773111,Ba2LaCl7,4.2082
mp-773128,Li10Co4O9,1.3986
mp-773214,Gd2W4O15,2.8721
mp-776645,Li2MnP2O7,3.7889
mp-776665,Li2MnP2O7,4.0492
mp-776689,Li3Fe2F9,3.8723
mp-776691,Li3VF5,2.7168
mp-776879,Ti3Mn2Cr3O16,0.8807999999999998
mp-776884,LiV6O7F5,1.3908
mp-776908,RbLiMn3O4,0.6859999999999999
mp-776985,MnV3O8,1.0782999999999998
mp-776993,Ni4P2O9,2.6306
mp-777065,NaMnPCO7,0.9334
mp-777071,Li3Sb(PO4)2,4.2233
mp-777072,LiVPO5,2.1544
mp-777091,Li2MnVP2(HO5)2,0.5120999999999998
mp-777107,V9O22,0.9038999999999996
mp-777149,Li2MnVP2(HO5)2,0.4914000000000001
mp-777201,LiNiBO3,2.3795
mp-777203,Li2MnVP2(O4F)2,0.6942999999999999
mp-777244,Li2Ti2MnCr2(PO4)6,2.4354
mp-777294,Bi2(SO4)3,3.7173
mp-777302,Sn2N2O,0.7330999999999994
mp-777314,Sn2N2O,0.11629999999999985
mp-777491,Li3V2P4(HO8)2,0.9151
mp-781710,NbNO,1.3512000000000004
mp-781954,Fe5(OF4)2,0.8138000000000001
mp-781961,LiCrPH2O5,2.6737
mp-781965,V2OF5,1.7342000000000002
mp-782034,YNb2NO5,2.5160000000000005
mp-782639,Dy2WO6,2.9144
mp-782642,LiMn2(BO3)2,0.4797
mp-782643,Li5Mn6(BO3)6,0.4418
mp-782644,LiMn3(BO3)3,0.419
mp-783904,NiH20S2(NO7)2,4.6073
mp-783907,LiMnP2HO7,4.0445
mp-849606,Cr4OF11,0.9244
mp-849672,Mn6OF11,0.44
mp-849678,Li2Fe4OF8,2.2139
mp-849685,Na2FeO4,1.3696
mp-849704,LiFe4(BO3)4,1.4752
mp-849720,LiFe4(BO3)4,1.6524
mp-849990,LiMn2(BO3)2,0.31509999999999994
mp-850252,Li5Fe8(BO3)8,1.5365000000000002
mp-850253,LiFe2(BO3)2,1.8867000000000005
mp-850255,LiFeP3H8O13,3.3193
mp-850256,LiFe2(BO3)2,1.5856
mp-850374,Li4Mn3Fe(BO3)4,2.9713
mp-850402,Li5Mn8(BO3)8,0.0403
mp-850413,LiCrPO5,0.4313
mp-850429,LiFe4(BO3)4,1.6951
mp-850446,Li3Fe4(BO3)4,1.7144
mp-850449,Li5Fe8(BO3)8,1.5931000000000002
mp-850450,Li7Fe8(BO3)8,1.4263
mp-850453,Li3V4(OF3)3,1.1747
mp-850455,LiFe4(BO3)4,1.2726999999999995
mp-630303,RhC2IO2,1.7793
mp-632319,CsH,2.5693
mp-634101,HCl,2.7912
mp-649945,Os4C13SO13,1.96
mp-651026,Os2C6SeO6,1.8468
mp-651155,TeI4,1.7073
mp-675751,Zr7N2O11,3.1558
mp-675771,AlPO4,1.1049000000000002
mp-675802,Y4Zr3O12,4.1171
mp-675882,Dy2TiO5,2.7184
mp-675993,Zr2N2O,1.6587
mp-676110,Tb14(PbSe8)3,1.8167000000000004
mp-676167,Tb14Ti10O41,2.3958000000000004
mp-676191,Sc11Nb3O24,3.0254000000000003
mp-676212,Na2Sr3P4,0.8050000000000002
mp-676280,NaTaO3,3.3421000000000003
mp-676313,RbMo3Br7,2.3358
mp-676314,Dy10Ti6O27,1.7770000000000006
mp-676317,Rb2ZnCl3,3.1934
mp-676473,Te6H6S(Cl13O2)2,2.7204
mp-676516,Pr2Pb17Se20,0.6900999999999997
mp-676609,Ga6SnTe10,0.7473000000000005
mp-676644,Yb(Ga3Te5)2,0.9627000000000004
mp-676684,Sr4Nb2O9,3.25
mp-676694,LiNbO3,2.9835000000000003
mp-676802,K2HfF6,2.7355
mp-676865,BaGeO3,1.4290000000000005
mp-676874,Dy2Ti2O7,1.8367
mp-676923,Cd2Bi6O11,1.8321
mp-677081,SrLa11Mg3Ga9O34,1.5107
mp-677138,RbPHO3F,4.7535
mp-677177,RbAl6H20N5F24,3.1874
mp-677245,Na2Sr3As4,0.504
mp-677371,Sr4LaCl11,2.3272000000000004
mp-677391,Tm4Zr3O12,4.164999999999999
mp-677406,CuH12N2(Cl2O)2,0.5761
mp-677437,Na3Zr2Si2PO12,4.4153
mp-677454,P6(Pb2O5)5,2.5131999999999994
mp-677611,TlAgAs2PbS5,1.5879999999999996
mp-677649,SrLa9MgGa9O29,2.0729
mp-677725,SrLa11Mg3Ga9O34,1.489
mp-677734,K4PH5Se3O16,3.6779
mp-679971,TiSi4(NCl7)2,2.522
mp-679991,CuW3Br7,2.1981
mp-679999,Re3(SeCl)7,1.5043
mp-680326,PC2S2N3,3.2771
mp-680436,Rb2LiSn4,0.9014000000000002
mp-680498,RbTaPS6,1.7240000000000002
mp-684747,Bi2O3,1.6863
mp-685272,InSnBr3,1.8471
mp-686183,Zn(Bi25O38)2,1.9832
mp-686466,Pr16Si16N27Cl3O14,2.2198
mp-686588,RbNa10Al11Si13O48,2.5018
mp-686718,Sr5Al11TlSi13O48,2.958
mp-699364,WO3,2.4793
mp-715517,VO2,0.9538000000000002
mp-720222,Na3CaAl3Si3SO16,3.7823
mp-720571,CaH8(ClO2)2,5.1835
mp-720825,NaPH4O5,4.9949
mp-720987,Na3CaSc3Zn(SiO3)8,3.7453
mp-721013,ZnGaP2H4NO8,3.5802
mp-721249,Li10Ge(PO6)2,4.4921
mp-721300,Ca2B5H2ClO10,5.0989
mp-721330,Rb14Na3Al17Si31O96,2.0598
mp-721463,K2P2H2O7,4.7606
mp-721552,Rb2TeH6SO10,0.034900000000000035
mp-721618,SrB6(H4O7)2,5.2619
mp-721624,Ca5P3HO13,5.2116
mp-722501,SnH3S4N4Cl5O,1.8407
mp-722766,CaHgH16(BrO2)4,2.8966000000000003
mp-722780,Pr2P3(HO2)5,5.6653
mp-758026,Li4Si4Bi2O13,2.3109
mp-758356,P2H12N7Cl,4.9510000000000005
mp-758362,Li3Ti2(PO4)3,0.0014000000000002901
mp-758376,Li3Sn2(PO4)3,1.9987
mp-758658,CaAl2(SiO4)2,4.8122
mp-758731,Li3Bi(PO4)2,3.7454
mp-758842,NbH14C4NO14,3.1805
mp-758855,LiZnBO3,3.3925
mp-758929,Li2Cu(PO3)4,0.3258000000000001
mp-758942,NaYH8(CO3)4,3.4281
mp-758944,LiBi(PO3)4,4.4348
mp-758953,P2H12BrN7,4.3765
mp-758985,RbTiPS5,1.193
mp-758996,Zn5P6H22(NO11)2,4.9833
mp-759172,TaSb3O8,1.9395999999999995
mp-759244,Li12Nb14ZnO42,3.2302
mp-759280,LiZr2(PO4)3,4.4162
mp-759307,TiNb2O7,2.0475
mp-759322,Li2Nb4ZnO12,3.0948
mp-759377,LiTi2(PO4)3,2.5653
mp-759441,LiCu(PO3)2,1.4952
mp-759486,LiNbSn3(PO4)6,2.9448000000000003
mp-759550,Li3Sb3(PO4)4,3.1045000000000003
mp-759602,Sb4O5F2,2.8185
mp-759634,Sr16Cu8O23,0.1748000000000003
mp-759651,ScH6Br3N2,3.0655
mp-763297,CoP4O11,3.1506000000000007
mp-763308,V6O5F19,2.1006
mp-763385,Li2Co(Si2O5)2,3.2401
mp-763446,MnFeCo(PO4)3,0.5024
mp-763458,V2GaO5,0.4402000000000004
mp-763460,LiP4WO12,3.5985
mp-763501,Li3V2(O2F)2,0.9591999999999998
mp-763515,LiMnF4,2.0021
mp-763521,LiVPO5,1.6263999999999998
mp-763522,Li3V3(PO4)4,1.8697
mp-763543,LiP3W2O13,3.4521
mp-763556,LiV(PO3)4,2.7822
mp-766009,Y11Tm5O24,4.0603
mp-766060,Li3Fe8(BO3)8,1.4476
mp-766062,LiFe2(BO3)2,1.43
mp-766064,Li3Fe8(BO3)8,1.4945000000000002
mp-766073,Li3V3P8O29,1.1247
mp-766110,LiMnV(P2O7)2,1.271
mp-766238,Zr2N2O,1.6014999999999997
mp-766258,Y13Tm3O24,3.991
mp-766288,Ba2CaI6,3.4939000000000004
mp-766301,Ba2CaI6,3.4988
mp-766308,BaCaI4,3.0008000000000004
mp-766310,BaCa2I6,3.6691
mp-766317,Ba2CaI6,3.8265
mp-766330,Ba6CaI14,3.0236
mp-766332,BaCa2I6,3.3113
mp-766340,Ba2CaI6,3.8212
mp-766343,Ba2CaI6,3.6188
mp-766349,BaCaI4,3.3672
mp-766358,Bi5O7F,2.4939000000000004
mp-766365,BaCaI4,3.5357000000000003
mp-766390,Li5BiS4,1.8897
mp-766603,Li5Fe8(BO3)8,0.8557999999999999
mp-766609,Li3Fe8(BO3)8,1.3453
mp-766625,LiFe2(BO3)2,0.6017999999999999
mp-766672,Li3V3P8O29,0.5831999999999999
mp-766731,Li3V3P8O29,1.2115
mp-766744,Li2Fe2Si4O11,3.5044
mp-770054,Li2FePCO7,2.1051
mp-770057,LiMnV(PO4)3,0.8234
mp-770060,Li5Fe2P2(CO7)2,1.2535999999999998
mp-770061,Li2FePCO7,2.2696
mp-770083,Rb5FeO4,1.4340000000000002
mp-770133,Li5Fe2P2(CO7)2,1.4253
mp-770135,Li2MnV(PO4)3,1.1412
mp-770136,Li4MnV(PO4)3,1.8184
mp-770146,Li3Mn2P2(CO7)2,0.4526000000000001
mp-770157,Li5Mn2P2(CO7)2,0.1229
mp-770161,Li2FePCO7,2.454
mp-770165,Li2FePCO7,2.4418
mp-770168,Li5Mn2(PO4)3,3.872900000000001
mp-770171,Li4MnV(PO4)3,1.2942
mp-770198,Li5Mn2(PO4)3,3.6014000000000004
mp-770215,Li8Mn3V(PO4)6,0.3831
mp-770222,Li3MnV(PO4)3,0.9115
mp-770223,Li2MnV(PO4)3,0.9814
mp-770225,LiMnPCO7,0.9722
mp-770233,LiMnPCO7,0.978
mp-770265,Li5Fe2P2(CO7)2,1.5793
mp-770270,LiCoBO3,2.1166
mp-770292,Li3Fe2P2(CO7)2,0.06540000000000001
mp-770293,Li5Fe2P2(CO7)2,1.3763999999999998
mp-770295,Rb17Fe5O16,1.8478
mp-770298,Li3Mn2P2(CO7)2,0.2856
mp-770307,Li3Mn2P2(CO7)2,0.9409
mp-773342,Na5LiMn2P2(CO7)2,3.3704
mp-773350,NaLi2MnPCO7,3.4936
mp-773351,NaLi5Mn2P2(CO7)2,3.5518
mp-773389,CrP4O11,2.5725
mp-773398,Tm2(WO4)3,4.7507
mp-773403,Na3Li3Mn2P2(CO7)2,3.5248
mp-773404,NaLi2MnPCO7,3.5433
mp-773414,Na5LiFe2P2(CO7)2,3.6191
mp-773436,NaLi5Fe2P2(CO7)2,4.0042
mp-773445,NaLi2MnPCO7,3.5568
mp-773446,Na5LiFe2P2(CO7)2,3.6147
mp-773524,Na3Li3Fe2P2(CO7)2,3.7383000000000006
mp-773530,Na3Li3Mn2P2(CO7)2,3.487
mp-773546,NaLi2MnPCO7,3.5574000000000003
mp-773680,Na5LiMn2P2(CO7)2,3.3307
mp-773681,Na2LiMnPCO7,3.4684
mp-773682,Na5LiMn2P2(CO7)2,3.374
mp-773685,Na2LiMnPCO7,3.4518
mp-773686,Na2LiMnPCO7,3.4769
mp-773687,NaLi5Mn2P2(CO7)2,3.5369
mp-773688,Na3Li3Mn2P2(CO7)2,3.4958
mp-773689,NaLi2FePCO7,3.8388
mp-773701,Na5LiMn2P2(CO7)2,3.3689999999999998
mp-773703,NaLi5Mn2P2(CO7)2,3.532
mp-773704,Na5LiMn2P2(CO7)2,3.3195
mp-773705,Na2LiFePCO7,0.0024999999999999467
mp-773717,Na3Li3Fe2P2(CO7)2,3.7783000000000007
mp-775036,Li2FeO2,2.7177
mp-777596,Li5V6O5F19,0.8029999999999999
mp-777615,Sb2(SO4)3,3.3325000000000005
mp-777661,Li5Mn8(BO3)8,0.5302000000000002
mp-777662,LiMn2(BO3)2,0.5207000000000002
mp-777663,LiMn2(BO3)2,0.4929000000000001
mp-777700,LiFeF4,2.7728
mp-777707,Li5Fe8(BO3)8,1.3798
mp-777708,Mn12O7F17,0.12339999999999995
mp-778626,Li8Mn3Fe5(BO3)8,3.1249
mp-778629,LiV4OF11,0.9877
mp-778635,Li4MnFe3(BO3)4,3.1372
mp-778680,Li5Mn8(BO3)8,0.575
mp-778754,Li8MnFe7(BO3)8,3.174300000000001
mp-778763,Li8Mn7Fe(BO3)8,2.9645
mp-850471,Li3Fe8(BO3)8,1.7174999999999998
mp-850529,SrCaI4,3.3835
mp-850744,Fe3(SiO4)2,1.4125
mp-850750,LiV2P4(HO8)2,1.0907999999999998
mp-850907,LiMn2(BO3)2,0.3985000000000001
mp-850981,V6O5F19,1.9572000000000005
mp-850985,LiFeP2HO7,4.0674
mp-851033,LiCo3OF5,2.0078
mp-851064,Li5V3P8O29,0.3732000000000001
mp-851280,Li3Mn4(BO3)4,0.3951
mp-861873,TaTlO3,0.6811000000000007
mp-865120,NaPaO3,2.9473000000000003
mp-865194,TmF3,5.3727
mp-865218,YbTiO3,1.8957
mp-865758,YbGeO3,1.0216000000000005
mp-1006611,Sb4S3N6(OF)12,0.10430000000000006
mp-1019742,HeSiO2,6.5469
mp-1025396,NbTl3Se4,2.2017
mp-10731,Ba2PrSbO6,3.6839999999999997
mp-1078893,La2TiCoO6,1.2579000000000002
mp-1079898,PtN4(ClO)2,0.7586999999999999
mp-1095618,PtN2,1.5736
mp-1096816,Al2ZnS4,1.6622
mp-10971,LiErO2,4.171
mp-1097929,HfMg,0.024499999999999744
mp-15501,Sr4TiAs4,1.3504999999999998
mp-17025,Sr3Y(BO3)3,4.4202
mp-19654,SnWO4,0.915
mp-24431,Si2H2O3,6.3669
mp-3487,Ca3(PO4)2,5.4611
mp-36738,Fe2CoO4,1.1935999999999996
mp-368,P2O3,3.8266
mp-4103,Sr2Sb2O7,1.3571
mp-540007,MnPO4,0.4601
mp-540966,Ni(ClO4)2,3.8331
mp-542433,Fe3O4,0.2262
mp-559390,CaAl2O4,4.1903000000000015
mp-560131,SiO2,5.685499999999998
mp-561310,NaLiCO3,4.3134000000000015
mp-565592,BaMnO3,0.7427999999999999
mp-570405,TiHg6P4Cl7,0.03189999999999982
mp-571458,RbGeI3,0.5540000000000003
mp-637062,AsXe2F9,1.7740999999999998
mp-638104,Nb2Tl4Se11,0.9315000000000002
mp-645095,UAg3(AsO4)3,1.1262
mp-645592,Nb3(BiO3)5,1.2672
mp-645655,TeMo3Se7I6,1.0757
mp-647158,SrTeO3,3.464
mp-647265,V2Bi7O15,1.2473999999999998
mp-647305,SiAg5ClO4,0.5733000000000001
mp-648788,Te7OsO5F32,0.10459999999999993
mp-649107,ReTe7O7F32,0.5589999999999999
mp-649186,Os10C23S2O23,1.1321
mp-673692,Nd10Se19,0.6395999999999997
mp-673703,Rb3Bi7Pb3(IO)10,0.2494000000000001
mp-675564,La2Th8O19,2.9637
mp-675683,Yb3(Sb7Te12)2,0.5365000000000002
mp-675792,Ga2HgTe4,0.22270000000000006
mp-676330,Nb12Br17F13,0.11929999999999995
mp-676536,KBiO3,0.1761999999999999
mp-676752,Li2FeCl4,0.01089999999999991
mp-676763,SbH7F11,0.395
mp-676863,Cu7PSe6,0.02909999999999968
mp-677704,Sb2H10C3NCl9,0.17959999999999998
mp-679947,Os(CO)4,2.645
mp-680178,In5Br7,2.0373
mp-680294,Tl2Cl3,1.7744999999999995
mp-680340,Nb6Tl3SBr17,0.2920999999999998
mp-680413,Rb3As7,1.457
mp-683883,AlPO4,5.6039
mp-683938,Rh8C20O19,1.4086
mp-686417,Zr25Sc6O59,3.5813
mp-686458,Rb11Al14Si10(AgO16)3,0.02010000000000001
mp-686599,SrNd10Se12(Cl2O9)4,0.25
mp-686615,AlPO4,0.043500000000000316
mp-686635,Rb16Er7Ti9(PO4)24,2.5889
mp-705159,K2Co2(MoO4)3,2.1587
mp-705367,LiV4P7O24,1.9036
mp-705429,Li6Co5(P2O7)4,2.3657000000000004
mp-705530,P3H4N5Cl4,3.6244
mp-705641,Ti8Fe35O64,0.8245999999999998
mp-705665,Nd4Mo31O56,0.8551000000000002
mp-705773,Fe2O3,0.9977
mp-705959,V8Sn16H85(C8O9)4,1.5383
mp-705960,Mg(FeO2)2,1.0377
mp-706241,Rb8W13O43,1.8216
mp-706252,LiFe5O8,1.0368000000000004
mp-706258,Sr2La3Ti2Cr3O15,1.5872000000000002
mp-706305,P6H26N7ClO19,3.2264
mp-706337,K2TiCr(PO4)3,2.3967
mp-706599,Sr6Te6O17,1.7836
mp-706661,UTi22Fe18PbO76,0.14290000000000005
mp-706879,Al2NiO4,2.3825000000000003
mp-707290,Nb10Pb14O39,2.1847
mp-708038,H18Se3(NO3)4,1.1293
mp-708066,Sb6H3CCl13O10,1.5069
mp-721415,CuH12N2(Cl2O)2,0.5328999999999999
mp-753751,LiAgF2,0.6332
mp-753830,Tm2Sb2O7,1.4172000000000002
mp-758828,LiCuPO4,0.2124999999999999
mp-761413,Li2CrP3O10,2.6484
mp-761588,MnCo3O8,0.8144
mp-761913,Li7V3P8O29,0.5752999999999999
mp-761942,Li3V3P8O29,1.2114
mp-761943,Li3V3P8O29,0.5847
mp-761946,Li3V3P8O29,0.6859999999999999
mp-761948,Li3V3P8O29,1.1787999999999998
mp-761956,Li3V3P8O29,1.0929
mp-762033,Li3V3P8O29,0.9409
mp-762141,Li7V3P8O29,0.4634
mp-762146,Li3V3P8O29,1.0087
mp-762150,LiTi2V3O12,2.3399
mp-762178,Li4V3P8O29,0.7502000000000001
mp-762297,Li5V3P8O29,0.8131999999999999
mp-762481,Li8V3P8O29,0.02119999999999989
mp-762630,LiV2(PO4)3,1.2123
mp-762743,Li2Mn2(PO4)3,0.3107
mp-766600,Li4TiS4,2.372
mp-768231,YHO2,4.2211
mp-768957,Ba3Y2Cl12,4.6195
mp-768995,Ba2Y5Cl19,4.2692999999999985
mp-769665,VCoO4,0.3679000000000001
mp-771303,LiMnB2O5,2.1107
mp-772472,LiFePO4,3.2763
mp-778895,Li4V2Si(PO6)2,1.9381
mp-778905,Ti17(NO4)6,0.15939999999999974
mp-778978,Ti17(NO4)6,0.11149999999999947
mp-778984,Ti17(NO4)6,0.08800000000000008
mp-779107,Ti17(NO4)6,0.13239999999999966
mp-779264,Cs2HfO3,3.1776
mp-779367,Li3MnV(PO4)3,0.4461999999999999
mp-779368,Li3MnV(PO4)3,0.21039999999999992
mp-779385,Li3Cr3(PO4)4,1.4399000000000002
mp-779387,Li6MnV3(PO4)6,0.2604000000000002
mp-779434,Li5La3Nb2O12,3.4842
mp-779464,Ti17(NO4)6,0.11439999999999985
mp-779470,Ti17(NO4)6,0.04640000000000022
mp-779487,Ti17(NO4)6,0.14260000000000073
mp-779491,BaP4O11,5.0699
mp-779648,Ti17(NO4)6,0.02430000000000021
mp-779802,Li3MnV(PO4)3,0.2045999999999999
mp-779860,Li3MnV(PO4)3,0.4108000000000003
mp-780484,Li5Mn2(PO4)3,3.8165
mp-853207,Li4V3P8O29,0.7975
mp-853208,Li4V3P8O29,0.5469
mp-853216,Ti7Cr12O48,0.8711000000000001
mp-853238,LiVF3,1.355
mp-853242,Li4V3P8O29,0.8246
mp-853269,Li5Fe4(P2O7)4,1.3356
mp-853275,Li7Mn4(P2O7)4,0.14610000000000012
mp-863290,Rb5Fe3(SO5)6,0.09760000000000013
mp-863865,Li3V3P8O29,1.0015
mp-863870,Li3V3P8O29,0.8785000000000001
mp-863871,Li3V3P8O29,0.9415
mp-863876,Li3V3P8O29,1.1973
mp-863877,Li4V3P8O29,0.8317000000000001
mp-863889,Li3V3P8O29,0.9715
mp-863890,Li3V3P8O29,1.0258
mp-863891,Li3V3P8O29,0.8655
mp-863894,Li3V3P8O29,0.8795
mp-863907,V18Ag7O48,0.7470000000000001
mp-863935,V18Cu20O57,0.08040000000000003
mp-865189,Li3V3P8O29,1.2034