task_id,pretty_formula,band_gap
mvc-14044,Y2Cr2O7,0.8136000000000001
mvc-14045,Y2Co2O7,0.40370000000000017
mvc-14207,CaBiF5,4.2211
mvc-14250,Al5(FeO4)3,1.5019999999999998
mvc-14314,CrF5,0.27
mvc-14376,Y2V3O9,0.943
mvc-14411,AlSbO3,0.1006999999999998
mvc-14413,TeO3,0.4183
mvc-14464,SnF3,1.9534
mvc-14516,Y(CuS2)3,0.057500000000000114
mvc-14527,Pr(NiO3)2,0.08619999999999982
mvc-14586,ZnSnO2,1.6448
mvc-14589,CrO2,0.6214999999999999
mvc-14636,CaFeO2,1.7224
mvc-14714,ZnMoF6,2.4618
mvc-14834,CaTiF6,4.675599999999998
mvc-14911,SbO2,1.8454
mp-6105,Pr2Ta3(SeO4)2,0.9477000000000002
mp-612,PS,2.4974
mp-6166,PrCuSO,1.6415999999999995
mp-6198,SrGa2(SiO4)2,3.8803
mp-619836,Nd4V5(Si2O11)2,0.7793999999999999
mp-628967,SrCrP2O7,2.9628000000000005
mp-6336,Na3In(PO4)2,3.3646
mp-633655,Rb5Si2NiO8,0.9725
mp-634464,K3B12H12Br,0.6967000000000001
mp-634767,RbMnH2OF4,1.6821
mp-6353,Y2Si4CN6,3.1011000000000006
mp-636805,Hg2ClO,2.0103
mp-647281,Sm2B4O9,5.3794
mp-647283,Ho2B4O9,5.6073
mp-647352,Rb2Cr3O10,2.0282
mp-647385,V2Pb4O9,2.8597
mp-647680,MnSiO3,0.030199999999999783
mp-647878,SbS5N5Cl6,1.8726
mp-650121,Li2SeO4,0.541
mp-676121,Ag3SI,0.3738999999999999
mp-676262,TaTlO3,0.9695
mp-676286,Zr4CdO9,2.5417
mp-6763,K2Ti(Si2O5)3,3.2540000000000004
mp-676368,Rb4N2O7,0.6474
mp-676528,SrTe5O11,0.16169999999999973
mp-676534,Rb8C4O7,0.038699999999999964
mp-676573,Nb2Pb3O8,0.0461999999999998
mp-683863,V3P4Pb2O17,2.0313
mp-683867,Tb(BO2)3,5.5089000000000015
mp-683904,Yb2Te5O13,0.16310000000000002
mp-683942,BaU(SeO4)2,0.4181999999999999
mp-683991,Cu4Bi4S9,0.31599999999999984
mp-684056,Ti4(PO5)3,0.045899999999999615
mp-684502,Sn2P3O10,0.3405999999999998
mp-705495,CaB3H5O8,5.5273
mp-705547,Fe2O3,0.8159000000000001
mp-705593,Al2NiO4,2.9234000000000013
mp-705630,V25O32,0.2331000000000003
mp-705646,Al2NiO4,2.9452000000000007
mp-705752,Fe2NiO4,1.2775
mp-705804,LiMnO2,1.2681999999999998
mp-706242,Sr20FeCo9(MoO6)10,0.2107000000000001
mp-706284,ZnH20S2(NO7)2,4.9405
mp-707889,Zr4H22N4O3F20,2.7428
mp-707905,PH7N2O3,4.5874
mp-708969,P2H24PdC12(BrN3)2,1.7182000000000002
mp-709030,Sb2H30C9(NCl3)3,3.1511
mp-709039,ZnH2(CO2)2,4.3891
mp-709069,Ti2P4H9C2NO16,2.5404
mp-709143,ZrH11C4NOF5,0.17710000000000006
mp-709326,Zn3P3H10C2NO13,0.7487
mp-709428,YH8C2S2NO9,1.4786
mp-762199,LiP2WO8,3.5405000000000006
mp-762200,LiP2WO7,3.9162
mp-762215,Li2TiCo3O8,0.1451
mp-762227,V(CO3)2,1.2893
mp-762238,LiFe(CO3)2,1.4698
mp-762243,LiNiPO4,3.4608
mp-762254,Li3V5O12,1.1195999999999997
mp-762283,LiCo(CO3)2,0.7668999999999999
mp-762303,Li2CrSiO4,2.6298000000000004
mp-762311,ZnH12N4Cl4O3,3.2221
mp-762322,LiTi2(PO4)3,2.4928
mp-762352,P(H3C)3,4.1736
mp-762355,LiTiP2O7,0.14650000000000052
mp-762756,Li3Mn3(PO4)4,0.8276999999999999
mp-762823,LiMn(PO3)4,1.366
mp-762825,Li2Mn(PO3)4,3.8417
mp-762833,LiFePO4,2.8914
mp-762858,Li4CrP6(H4O11)2,3.1935
mp-762861,LiFeSiO4,3.0214
mp-762862,LiFeSiO4,3.0364
mp-762864,Li3Mn2(PO4)3,0.8166000000000002
mp-762887,LiFe4(PO4)3,2.9119
mp-762891,LiFe(PO3)4,2.4753
mp-762893,LiFeSiO4,2.9640000000000004
mp-762925,LiFeSiO4,2.9773
mp-762956,Li5V3P8O29,1.1195
mp-762957,Li5V3P8O29,1.144
mp-762959,Li3V3P8O29,1.1872
mp-762961,Li4V3P8O29,1.0671
mp-762967,Li4V3P8O29,1.1209
mp-762974,LiCoSiO4,1.4868
mp-762976,LiCoSiO4,1.4128000000000005
mp-762978,LiCoSiO4,1.2887
mp-763024,Mn6O5F7,0.024999999999999908
mp-763150,V6CuO15,0.3577999999999999
mp-763188,Mn12O5F19,0.1109
mp-769480,Y4Ga2O9,3.427
mp-769535,V3(PO4)2,2.0661
mp-769705,Cd(CoO2)2,0.3248000000000002
mp-769711,Li3Cr3CoO8,0.3769
mp-769793,Rb4FeO4,0.4682
mp-769947,K4TiO4,3.09
mp-770073,EuY2O4,0.5175999999999998
mp-770089,Li24Mn7Cr5O36,1.1144999999999998
mp-770232,Li24Mn7Cr5O36,1.0812
mp-770250,Li24Mn7Cr5O36,1.1001999999999998
mp-770259,Li24Mn5Cr7O36,1.0677000000000003
mp-779093,Fe10O11F9,0.2845
mp-779144,Rb3HoO3,2.1339
mp-779189,Li32Mn13Cr3O48,1.2541000000000002
mp-779198,Li32Mn13Cr3O48,1.2035
mp-779206,Li32Mn13Cr3O48,1.2042000000000002
mp-779260,Gd3SbO7,2.5327
mp-779270,Li32Mn13Cr3O48,1.1929
mp-779294,Na3Sb5O14,1.1243999999999996
mp-779350,LiCr4(PO4)3,1.5167000000000002
mp-779388,Li24Mn5Cr7O36,1.0202
mp-779392,Li32Mn13Cr3O48,1.0171
mp-779477,Na2Ti2O5,3.8185
mp-779552,ZnTe2O5,2.6398
mp-779594,Zn2As2O7,2.4425000000000003
mp-779622,Be2P2O7,5.5953
mp-779682,NaScP2(HO4)2,4.8819
mp-779720,Li5LaO4,3.9705
mp-780630,LiVP2HO8,1.4215
mp-780676,Na2Cr4O13,1.8189
mp-8627,SmBO3,5.1718
mp-862729,Sr(DySe2)2,1.3937999999999997
mp-862893,ThNb4O12,1.9434
mp-863066,Ta6Pb4O19,1.7422999999999995
mp-863292,Na3VP2O9,0.43489999999999984
mp-863362,LiTa3O8,2.4138
mp-863420,Rb4H4C3O10,4.0445
mp-863884,LiV2OF5,0.8006
mp-863888,Li2Fe(SiO3)2,2.624000000000001
mp-863893,Li4Ni(PO3)6,4.3492
mp-863899,Li2Ni(PO3)4,4.5393
mp-863900,LiNi(PO3)3,4.0023
mp-863911,Li2Fe(SiO3)2,2.9174
mp-865198,LiCoPO4,2.8966
mp-865564,Tl2CoP4(HO2)8,3.2759000000000005
mp-866504,CaSnS3,0.6550999999999996
mp-866520,Ca2SnS4,2.027
mp-866521,Ca2SnS4,1.6020999999999996
mp-866739,RbMnP3HO10,0.9992
mp-866806,TbAgH2C2SO9,2.9436
mp-866813,Ca2SnS4,2.0265
mp-866941,CaSnS3,1.3659999999999999
mp-975505,Rb2CoP4(HO2)8,3.2758000000000003
mp-975605,Pr6IrCl11,0.6391
mp-977037,KCe(PO3)4,0.22940000000000005
mp-978595,Si(H3C)2,3.5706
mp-978990,Tl2(IO3)3,1.9007
mp-9889,GaS,1.8596
mp-988945,AlAs,0.3385000000000007
mp-9890,TaAgO3,1.9156000000000004
mp-989189,SbBrO,1.6027000000000005
mp-989191,SbOF,1.8582
mp-989192,SnClF,2.549
mp-989193,SnBrF,1.9947
mp-989194,SnBrCl,1.1451
mp-989195,ScClO,3.9228
mp-989196,SbClO,1.8527000000000005
mp-989468,B2(CN2)3,2.6694999999999998
mvc-11380,V2CoO7,0.5663
mvc-12164,Y2Cr3O12,1.8619000000000003
mvc-14941,MoO3,2.0011
mvc-14963,Ca(NiO2)2,0.5512999999999999
mvc-14970,Ti4(FeO4)3,0.7840999999999996
mvc-14994,Al5(CoO4)3,0.2671999999999999
mvc-15019,V2(PO4)3,0.9778
mvc-15029,Y(CuO2)3,0.06259999999999999
mvc-15098,SrNi(PO4)2,0.007099999999999884
mvc-15141,Co(BiO3)2,0.0008999999999996787
mvc-15363,SnO2,2.0868999999999995
mvc-15457,La2CrO6,0.9379
mvc-15458,ZnNiF6,1.5876
mvc-15525,CaCoO2,0.8463999999999996
mvc-15594,VZnO2,0.4384999999999999
mvc-3416,ZnBiF5,4.36
mvc-3419,CaTiF5,0.2067000000000001
mvc-3462,ZnSbF5,3.9532
mvc-3518,BiF5,1.9048
mvc-3733,CaMnF5,1.5376
mvc-3735,CaMoF5,3.9328
mvc-3739,CaWF5,3.7607
mvc-3740,CaVF5,2.4541000000000004
mvc-3753,ZnWF5,2.6632
mvc-3757,ZnMoF5,3.34
mvc-4099,Si2TeO7,0.1723999999999999
mvc-4404,Zn3Si4(BiO7)2,2.4361
mvc-4432,Zn3Si4(AgO7)2,0.5466
mvc-4472,Zn3Si4(SbO7)2,1.7653
mvc-4488,Ti2Zn3(Si2O7)2,0.06669999999999998
mvc-4514,Si2WO7,0.6315
mvc-4527,Zn3Si4(SnO7)2,1.3719
mvc-4629,V2Zn3(Si2O7)2,1.8698
mvc-4668,CaSnO2,0.5812999999999997
mvc-4676,ZnBi2O5,0.2926000000000002
mvc-4715,TiO2,2.0948
mvc-4767,MgSnO2,0.9440000000000001
mvc-4769,ZnSn2O5,0.8383000000000003
mvc-4822,MgBi2O5,0.3736999999999999
mvc-4826,Zn3Cu2(Si2O7)2,0.2671000000000001
mvc-4831,Zn3Cr2(Si2O7)2,2.0721
mvc-4860,Zn3Si4(NiO7)2,0.5771999999999999
mvc-4877,Zn3Fe2(Si2O7)2,2.0643
mp-1015026,CrN2,0.211
mp-1017988,SrCaO2,3.3236
mp-1020715,Sr6Y2Al4O15,3.9889
mp-1020797,Y(PO3)3,5.6193
mp-1029493,RbNbN2,1.8916
mp-1036556,Mg14AlCuO16,0.7314999999999996
mp-1044157,Y4Si2Sn13(SbO14)2,1.6018999999999997
mp-1078973,Sr(InP)2,0.17999999999999972
mp-1096279,NbTcW2,0.10029999999999983
mp-1120726,Rb3Bi2I9,2.3512
mp-1120788,CoCl2,0.16310000000000002
mp-1175770,Li9Mn2Co5O16,0.053200000000000365
mp-13024,AlPO4,4.9644
mp-1565,ZrO2,3.125
mp-17066,Y2TeO6,3.0718
mp-1778,BeO,6.8508
mp-18440,Rb7NbAs4,0.7678999999999998
mp-18684,KPF6,7.2209
mp-18968,Li2FeSiO4,3.1236
mp-19100,Sr2CaMoO6,2.2527
mp-19270,TiFeO3,2.0256000000000003
mp-19376,TiMnO3,1.8848000000000005
mp-20082,Yb(As2Rh3)2,0.0907
mp-22399,Yb2S2O,0.6983999999999999
mp-24834,H4N2O3,3.2767
mp-25595,NiO2,1.4989
mp-25696,Mn3O4,0.5210999999999997
mp-28041,Pb9(Br5O2)2,2.9011000000000005
mp-29803,SiH,2.1634
mp-30321,Y2P4O13,5.6411
mp-30667,Sr8Ga7,0.019299999999999876
mp-32329,Ni5(PO4)4,0.0441999999999998
mp-32442,VP2O7,1.4377000000000002
mp-37514,SrCuO2,0.6403000000000003
mp-39387,SrLiTa2O6F,3.6165
mp-39460,Ca5P3ClO12,5.3781
mp-4408,Sm2Zr2O7,3.0741
mp-4906,Te2SO7,3.2845000000000004
mp-531238,Cd(GaO2)2,0.6267999999999998
mp-540489,LiCoPO4,3.138
mp-543032,NdH18C3S3(O2F)9,6.0476
mp-549389,Li4CO4,5.9251000000000005
mp-552941,Na4CO4,2.4364
mp-554288,NaPH4O5,5.2286
mp-555769,ScBiO3,2.6631
mp-558110,TiS2,0.01340000000000008
mp-561189,Rb6Si10O23,4.0163
mp-561847,ZnNi(PO3)4,4.5028
mp-569571,Nb3Sb2Te5,0.8441000000000001
mp-571414,KNa(BH4)2,6.1917
mp-585256,Co(PO3)4,0.4695
mp-600078,SiO2,5.6143
mp-625207,P(HO)3,4.5579
mp-626165,NaH9O5,3.8286
mp-632808,BaLiH3,1.1987
mp-651051,Te2W3(CO)15,1.2205
mp-651311,Cu2WO4,0.6993000000000003
mp-651688,Si4Ag10O13,0.4972999999999996
mp-651839,Hg8Br3O4,0.2024
mp-651907,Nb6InCl15,0.9209
mp-652068,KS2N(O2F)2,5.4511
mp-652224,Rb2Cu2(MoO4)3,0.5535
mp-653781,BaNb8O14,0.30290000000000017
mp-654447,Ni(XeF8)2,0.5866000000000002
mp-656153,CoH32C8S4(NO5)2,0.0807
mp-656859,FePH5CO8,1.1988
mp-657985,Ce5C2Cl9,0.00020000000000042206
mp-659217,Zn3B7BrO13,0.4527000000000001
mp-673654,As8S9,0.3097000000000001
mp-677378,TiNbTl(O2F)2,2.5858
mp-684698,Sn2As2H22C7(ClO2)2,0.32099999999999995
mp-684868,Na2Al2Si3(HO3)4,2.5685
mp-685069,Sc2Te3,0.003300000000000303
mp-6951,RbCdF3,3.1745
mp-6952,RbYbF3,6.5181
mp-697231,TlAgAs2PbS5,1.1073000000000004
mp-720111,Na4Al3Si3ClO16,0.3044
mp-720118,Sr3Nd10Al12Si18(N2O)18,3.0068
mp-720266,Re2H6PbC(NO5)2,3.1303
mp-720267,BaB2H10O9,0.5958000000000001
mp-720402,B10H13CSN,2.5386
mp-720486,VCu13Sn(AsS8)2,0.4513999999999996
mp-720505,SrLa7TiGa7O24,2.523000000000001
mp-720895,ReH22C4S4N8Cl8O3,1.3417
mp-720928,ReH12C2S2N4Cl5O3,0.6434
mp-720965,Al2H18SO15,0.02090000000000014
mp-721011,Pr20AlSi19N33Cl2O19,2.8389999999999995
mp-722353,UH12C2S2N6O13,0.14500000000000002
mp-745099,KBaCr2(PO4)3,2.7328
mp-745144,VH24C8S2N2O9,3.1064
mp-746681,VH8C2NO3,3.0763
mp-753748,Li3CuS2,2.2411
mp-755293,Sr4Sb2O,0.9842
mp-756810,Sr3Ta4(O6F)2,3.2944
mp-758289,Th4Ta18O53,1.6168
mp-759230,NaAl11O17,4.402099999999999
mp-761675,Li2Cr3CoO8,0.5895999999999999
mp-761812,LiCoPO4,3.1546000000000003
mp-763261,Fe(PO3)3,2.7346
mp-763270,NiP4O11,4.8766
mp-763271,Mn5(FeO3)4,0.32250000000000023
mp-763383,LiP4WO12,4.1833
mp-763384,Li2Co(Si2O5)2,2.4396
mp-763402,LiP4WO12,3.8888
mp-763459,LiP4WO12,4.1511
mp-763461,LiP3(WO6)2,2.6345
mp-763480,LiP3W2O13,3.2761
mp-763493,Li2VP3O10,2.2043
mp-763496,MnFeCo(PO4)3,0.22189999999999974
mp-763539,LiP3W2O13,2.9335
mp-763555,Li2V(PO3)4,2.3674
mp-763585,LiV(PO3)4,2.5341
mp-763606,Li3P3(WO6)2,3.9071
mp-763626,LiFe(PO3)4,2.5387000000000004
mp-763736,LiMn4(PO4)3,2.8675
mp-763754,K2CoP4(HO2)8,3.2667
mp-763781,Li3Fe2(SiO4)2,1.6844
mp-764038,Mn12O7F17,0.2763
mp-764075,Li3V3P8O29,1.1659000000000002
mp-764079,Mn6O5F7,0.2046000000000001
mp-764164,Mn6O5F7,0.0033000000000000806
mp-764954,LiV(TeO4)3,1.3811000000000004
mp-764983,Li3VCr3O8,1.5066000000000002
mp-765931,MnF3,0.9456
mp-766628,Li5V3P8O29,0.9464
mp-766629,Li5V3P8O29,0.5579999999999999
mp-766630,Li5V3P8O29,0.9598
mp-766642,Li5V3P8O29,0.8071
mp-766647,Li4V3P8O29,0.4412
mp-766648,Li4V3P8O29,0.4375
mp-766649,Li5V3P8O29,1.1186
mp-766655,Li4V3P8O29,0.4515
mp-766657,Li4V3P8O29,0.4153
mp-766662,Li4V3P8O29,0.6863999999999999
mp-766663,Li4V3P8O29,1.0567
mp-766666,Li4V3P8O29,0.9804
mp-766673,Li4V3P8O29,0.8222
mp-766674,Li3V3P8O29,0.7877
mp-766780,Li3Fe2(PO4)3,2.4273
mp-766914,LiV2F7,1.771
mp-770096,Mn2FeO4,0.6438999999999999
mp-770582,Li8CrO6,1.0428000000000002
mp-770630,RbLi2Cr2(BO3)3,2.0057
mp-771642,Sr2CaI6,3.5577999999999994
mp-771643,Sr2CaI6,3.0769999999999995
mp-771778,Tm2P4O13,5.467899999999998
mp-771814,CaPbI6,1.8337
mp-771829,Sr2YI7,2.6895
mp-771831,Sr2LaCl7,3.6174
mp-771870,LiMn2(PO4)2,0.2333000000000003
mp-771879,Sr2LaCl7,4.2449
mp-771883,Sr3LaCl9,3.7154
mp-771888,Sr2LaCl7,4.1453000000000015
mp-771905,Mn(PO3)3,1.3101999999999998
mp-771922,Ba3YI9,2.8353
mp-771944,Ba3La2Cl12,3.7858
mp-773320,LiFePO4,3.045
mp-773778,LiCoGeO4,1.621
mp-775156,LiMnSiO4,1.2672
mp-775173,Li4V3P8O29,0.8424
mp-775233,Cs2MnO4,0.652
mp-775267,Li3MnV(PO4)3,0.234
mp-776485,NbV3O8,0.36860000000000026
mp-776778,LiFeF3,3.0149
mp-778085,Na5Bi2P(CO4)4,0.02680000000000016
mp-779229,Fe6O7F5,0.20710000000000006
mp-779689,H3N,3.7337
mp-780769,LiCu(PO3)2,1.0178000000000005
mp-780806,FeOF,1.6065
mp-780850,Li3Mn4(BO3)4,0.007700000000000041
mp-782053,Sr9La5Cl33,3.6325
mp-8455,CsF,5.9329
mp-849434,Li3V3P8O29,0.7165
mp-849447,Li3V3P8O29,1.2102
mp-849506,Li3Fe2(P2O7)2,1.0356
mp-849550,LiFeP2O7,1.2947000000000002
mp-849560,Li5Fe4(P2O7)4,1.4432000000000005
mp-849692,LiMnP2O7,0.3506
mp-864801,YbO2,3.1093
mp-868578,GaFeO3,2.1247
mp-868618,Na2MnPCO7,0.4637
mp-868663,Li3Cr4(PO4)6,0.04479999999999995
mp-8696,K3Na(SeO4)2,3.5425
mp-8796,Sr2LiSc(B2O5)2,4.626
mp-974949,Rb3Ir,0.11590000000000013
mp-985575,LiAg(CO2)2,2.1180000000000003
mp-998155,RbSrCl3,4.6184
mp-998710,TlHgF3,1.8117
mp-998749,KCaBr3,3.8981
mvc-12315,Y4(Mo2O7)3,0.4527999999999999
mvc-3646,Zn3Si3(AgO6)2,0.2208000000000001
mvc-3728,MgMnO2,0.7912000000000003
mp-1043032,Ti(GeO3)2,3.2157
mp-1175053,Li7Mn2(CoO4)3,0.03779999999999984
mp-1176025,Li9Mn2Co5O16,0.07989999999999986
mp-1207671,YAgS2,1.7846999999999995
mp-1209268,RbErBeF6,7.4994
mp-1215668,ZnCu2Sn(SeS)2,0.07139999999999969
mp-1215716,ZnNi4O5,1.9219000000000008
mp-1218654,SrCa3Al6Si6(HO13)2,4.902100000000001
mp-640907,Rb8Fe2O7,1.6081
mp-641167,Ag2Mo2O7,1.9882
mp-641415,PbWO4,3.0288
mp-641917,ZnSiO3,3.3367999999999998
mp-641965,RbAuC2(SN)2,2.4942
mp-642254,Tl2V8O21,1.3078
mp-642482,Sr7Mn4O13,1.1903
mp-642662,SrH2Cl2O,4.0372
mp-642795,PHSF2,4.5687
mp-642824,SF6,5.9606
mp-643026,SrH4(ClO)2,4.9993
mp-643060,ZnH4(BrO)2,3.5935
mp-683947,SiO2,5.2102
mp-683956,SbSNF6,3.3272
mp-684017,Y2Te4O11,3.2952
mp-684042,Li3Bi2(PO4)3,4.0258
mp-684082,LiSb(PO3)4,4.0039
mp-684090,LiSbP2O7,3.6516
mp-684093,LiBi(PO3)4,4.7432
mp-684106,LiSbP2O7,3.9865
mp-684109,LiBiP2O7,3.9872
mp-684489,LiBiP2O7,4.4537
mp-684506,LiBi(PO3)4,4.6455
mp-684509,LiSn(PO3)3,4.2159
mp-684592,HN,1.8061
mp-684617,Bi2O3,0.9627999999999995
mp-684677,Al2O3,3.9762999999999993
mp-684679,Sb6O13,1.3498
mp-684723,TiNb2Zn(PbO3)4,0.3401999999999994
mp-684736,TiH12N3F7,3.5435
mp-684746,LiAlSi2H2O7,2.8643
mp-684833,Na8Al6Si6O25,1.4543
mp-684841,KMg3AlSi3(O5F)2,3.7647
mp-685003,Tb2Se3,1.5314000000000003
mp-685049,IF7,1.7231
mp-685120,Al2Se3,1.1228000000000002
mp-685157,IF7,1.4690999999999996
mp-685168,BeF2,6.5396
mp-685195,SrLaTl(AsO4)2,3.5481
mp-740732,UP3H10BrO8,0.3799000000000001
mp-740746,NaH2BrO5,1.3121999999999998
mp-743528,CrH14N4Cl3O,3.2618
mp-743557,V2Bi4O11,2.4967999999999995
mp-743569,MnH6(OF)3,1.5910000000000002
mp-743572,Zn2FeP2(H2O3)4,3.1505
mp-743586,VP(H2O3)2,1.9536
mp-743607,Li2Ti4Co(PO5)4,1.6172
mp-743613,KMnH5(SO5)2,0.7805
mp-743627,Na2Cr2O7,2.6267
mp-743630,SrTiFe(PO4)3,2.2525
mp-743645,KMgIn(MoO4)3,3.821
mp-743676,VH10S2(NO4)2,0.8914000000000001
mp-746030,NaFePO4,3.2918000000000003
mp-746071,KFePO4,3.4089
mp-760819,LiAg2F6,0.12200000000000012
mp-760979,Na2Ti2O5,3.6479
mp-760994,NaSbO3,1.9296
mp-761010,TiP2O7,2.5895
mp-761126,Cu4OF6,0.18480000000000008
mp-761169,Zn2Hg2H2S2O11,1.9089
mp-761301,VIO4,1.0608
mp-761313,Li2VP2O7,2.9871000000000003
mp-761318,Li3FePCO7,4.2992
mp-761320,Li2VP2O7,2.7747
mp-761322,LiNiBO3,3.1186
mp-761326,LiVPO4,2.1744000000000003
mp-761328,LiVPO4,2.5249
mp-761329,LiMn(SiO3)2,1.4972
mp-761337,SrCrO3,0.6900999999999997
mp-761339,NaMnP2H10NO10,3.76
mp-761340,LiVPO4,2.3663000000000003
mp-761348,Li7Fe7SiO16,1.4919
mp-761356,Ti3Co3(TeO8)2,0.4958
mp-761357,Li3V(PO4)2,1.8613
mp-761362,LiVPO5,1.4729
mp-761364,Rb6Co2O7,1.2588
mp-763888,WOF4,5.0069
mp-763890,Li2VCrP2(O4F)2,1.8744
mp-763891,Li2Mn3F8,2.8732
mp-763903,V3OF11,1.9343
mp-763918,V6O5F19,2.0415
mp-763926,VOF2,1.655
mp-763937,VO2F,1.568
mp-763951,VO2F,1.1068
mp-763958,Na2CrO4,3.0117000000000003
mp-763959,Li3Mn3FeO8,0.4658000000000002
mp-763960,VOF2,1.7162000000000002
mp-763965,V2(OF)3,1.516
mp-763966,Li2Mn3WO8,1.0537999999999998
mp-763972,Cr4OF11,0.9371
mp-763975,V2O3F,0.6389999999999998
mp-763990,V3O5F,0.3570000000000002
mp-763994,Li3Co5OF11,2.4028
mp-763997,Mn6O5F7,0.2615000000000001
mp-764002,VO2F,1.5336999999999998
mp-764007,Li3CoO2F,2.0702
mp-764010,Mn6OF11,0.8940000000000001
mp-764011,NaV(PO4)2,1.8202
mp-764012,V2OF5,1.6175
mp-764014,V3OF11,1.5639000000000003
mp-764018,Co6O5F7,0.04889999999999994
mp-764020,V6O5F19,2.0909
mp-764023,Co6O5F7,0.2554000000000001
mp-764029,Co6O5F7,0.3609
mp-764030,V4O5F7,0.4751
mp-767125,LiMn3(OF3)2,0.2762
mp-767138,Li2VSiO4,1.255
mp-767139,LiCr2(PO4)2,1.0178000000000005
mp-767155,WO2F,0.4224000000000001
mp-767187,Mn5OF11,1.026
mp-767191,Li7Mn(OF)3,2.7495
mp-767192,Sn(PO3)2,3.0537
mp-767196,Li3Mn5OF11,2.2349
mp-767204,Li2V(Si2O5)3,2.0913
mp-767223,LiVCrP2(O4F)2,1.0971
mp-767244,LiCoP2O7,1.1067999999999998
mp-767245,Sr2VCO3F5,2.4119
mp-767248,LiFeSiO4,2.6071
mp-767251,Li2VSiO5,2.2562
mp-767254,LiCo2(PO4)2,0.5239
mp-767263,LiFe2(PO4)2,1.9141
mp-767270,Li3VSi2O7,2.1313
mp-767272,LiVFe(P2O7)2,1.6041
mp-767301,Li3Co2(SiO4)2,0.6373
mp-767302,Li2SiNiO4,3.4610000000000003
mp-767303,Li2Mn(SiO3)2,3.1693
mp-770686,Li3MnAl2O6,2.1234
mp-770693,Li3MnAl2O6,1.406
mp-770695,Rb3PbO3,0.15280000000000005
mp-770709,RbLi2Fe2(BO3)3,2.3855
mp-770719,RbLi2Ni2(BO3)3,0.8729
mp-770720,Li4ZrO4,4.0628
mp-770725,RbLi2Mn2(BO3)3,0.5117
mp-770729,Li2AlFeO4,2.5826
mp-770734,Mg3(AsO4)2,3.0162
mp-770743,Li2Hf2O5,3.8274
mp-770746,LiNbTe2WO12,1.7579000000000002
mp-770750,Li3Al(FeO3)2,2.1165
mp-770763,LiMnPO4,3.3517
mp-770773,Rb2S2O7,4.9853
mp-770843,VCrO3,1.2463999999999995
mp-770844,V3(PO4)2,1.7588999999999997
mp-770848,Li2TiCo2O5,1.2580999999999998
mp-770850,Li2TiCo2O5,0.7144000000000004
mp-770855,VCrO3,1.423
mp-770857,V(SbO3)4,1.1530000000000005
mp-770871,Li6Cr2O7,1.5266
mp-770873,Ho2WO6,2.8639
mp-770876,Li3Ni(BO3)2,1.1688
mp-770880,Li3Ni(BO3)2,1.2337
mp-774753,Li5GaO4,3.6955
mp-774946,Li2V3SnO8,0.6480000000000001
mp-774976,Li8Mn5Fe3(BO3)8,0.04300000000000015
mp-774995,Fe5(OF4)2,0.9344
mp-775001,V3FeO8,1.2565
mp-775086,Li3SiNiO5,0.17379999999999995
mp-775089,Li9(CoO4)2,0.6165
mp-775149,Ti(SO4)2,2.2226
mp-775154,LiMnF4,1.7009999999999998
mp-779267,Li8Mn7Fe(BO3)8,2.8964
mp-779272,Li2MnFe(BO3)2,2.6787
mp-779276,LiCu5(PO4)2,0.5182000000000002
mp-779300,LiFe2OF5,2.2825
mp-779306,Li3Fe(BO3)2,2.1966
mp-779307,Li3Fe(BO3)2,2.5133
mp-779308,SrLiLa7(CoO8)2,0.5669000000000004
mp-779312,Li2Mn(BO3)2,0.6614000000000002
mp-779317,LiMnF3,3.5182
mp-779347,V4OF11,1.5215999999999998
mp-779353,Li3Fe5OF11,3.135
mp-779357,V3OF11,2.1816
mp-779358,Na3VO4,4.0157
mp-779362,Li2MnFe(BO3)2,3.1151
mp-779363,Cr4OF11,0.9148
mp-779365,V2OF5,1.5278
mp-779371,Li3MnV(PO4)3,0.38480000000000025
mp-779379,LiV4OF11,1.1081
mp-779395,Li8Mn5Fe3(BO3)8,3.0399000000000003
mp-779396,LiV6O7F5,1.2352
mp-779411,Li4Mn3Fe(BO3)4,2.97
mp-779472,Li5Cu(PO4)2,1.9919
mp-779522,Ho2P4O13,5.3595000000000015
mp-779533,Ba3(BrO)2,2.2906
mp-779579,LiCu5(PO4)2,0.15640000000000054
mp-779588,LiCu2PO4,0.6551
mp-779641,LiCu5(PO4)2,0.4392000000000005
mp-779643,Li2CuPO4,1.327
mp-779729,Na2Ti2O5,3.8077
mp-779763,Tb2Ti2O7,3.0138
mp-779772,Li32Mn11Cr5O48,1.0192
mp-779773,Na5GdO4,1.895
mp-779775,Li24Ti11CrO36,1.3312999999999997
mp-779784,Li6MnFe5(BO3)6,2.8636
mp-779785,Fe5(OF4)2,1.1013
mp-779786,Li32Mn5Cr11O48,0.4636
mp-779789,Li4Mn3Fe(BO3)4,2.9000000000000004
mp-779792,Fe5(OF4)2,0.9391999999999998
mp-779798,Li32Mn5Cr11O48,0.7617000000000003
mp-779799,Li24Mn5Cr7O36,0.883
mp-779811,Fe5O3F7,1.3902
mp-779813,Fe5O3F7,1.1241
mp-868321,LiNi(PO3)4,1.1149
mp-868325,Li7V(O2F)2,1.966
mp-643265,ReF7,1.9773
mp-643277,SiH6(NF2)2,6.5941
mp-643356,SrH2Br2O,4.1758000000000015
mp-649729,NbO2,0.1858
mp-650024,RbLiBi2(MoO4)4,2.9643
mp-650026,PrIn2Cl5,2.7765000000000004
mp-650442,Tl3AgTe2,0.5357000000000003
mp-650526,WC4(BrO2)2,2.0297
mp-651217,As(IF3)2,0.6425000000000001
mp-651271,Co3(PO4)2,2.4802
mp-651601,K2Fe2P2O7F2,2.1317000000000004
mp-686001,Ce2Nd2O7,1.6430000000000002
mp-686015,Ca3(PO4)2,2.773
mp-686038,Y(PO3)3,0.8271
mp-686042,Zn4B2O7,1.8634
mp-686057,LiNbO3,3.0381
mp-686310,BaNa2Al4(SiO4)4,4.7576
mp-686526,NaCaAlSi2O7,3.9498
mp-686701,Nd3O2F5,3.9479
mp-686748,Ca2Al2Si(HO4)2,4.4653
mp-686936,UV2O8,1.6451
mp-686949,ThCr(IO5)2,2.7038
mp-746691,CoH8(ClO2)2,1.9607
mp-752393,Be2P2O7,6.028600000000001