task_id,pretty_formula,band_gap
mp-23977,HS7N,2.0186
mp-23979,K3H(SeO4)2,3.5508
mp-23980,Cs3H(SeO4)2,3.7309
mp-23994,U2Si(H2O5)2,1.9874
mp-24001,NaZn2P2HO8,3.9677
mp-24004,Zn2PHO5,3.0356
mp-24007,Rb2HBrO,3.3099
mp-24022,RbH3(SeO3)2,4.1504
mp-24026,Si3H9N,4.1831
mp-24030,ZrP2(HO3)2,4.1126
mp-24043,H2O,5.4391
mp-24076,Y(HO)3,3.751
mp-24109,NaP(HO2)2,5.2635000000000005
mp-24112,Rb2ZnH12(SO7)2,4.845
mp-24113,SnH8(NF3)2,5.1145999999999985
mp-24121,Tb(HO)3,3.5839999999999996
mp-24124,NdH2ClO2,4.8667
mp-27451,Tl3PbBr5,3.1286
mp-27455,YCl3,4.9301
mp-27465,S8O,2.4235
mp-27472,NbSbF10,4.3499
mp-27473,Sb2TeF14,3.9651
mp-27474,PaBr4,0.0411999999999999
mp-27480,Sn2OF2,2.6708000000000003
mp-27484,Tl2O,0.5714000000000001
mp-27485,Tc2O7,2.6664
mp-27488,Ta3N5,1.2140999999999995
mp-27493,Sn3(PO4)2,3.4768000000000003
mp-27500,NaSO2,2.3189
mp-27502,CNCl,5.8354
mp-27515,TlSb3S5,1.5863
mp-27517,Rb2CoI4,0.5542
mp-27523,VPCl9,0.12019999999999995
mp-27532,Si(PbSe2)2,1.8204
mp-27536,UBrO2,0.1147999999999998
mp-27537,Na2TeO4,1.8037
mp-27553,Ta2SnO7,1.4837999999999996
mp-27554,Ag3AuS2,0.1802999999999999
mp-27563,Rb2In4O7,1.4515999999999996
mp-27573,NaSb3F10,4.968
mp-27575,Te5(O2F11)2,2.867
mp-27576,Sc2GeO5,4.1263
mp-29006,P2SO3,3.7605
mp-29007,P4(SO2)3,4.1226
mp-29012,Tl2AgI3,2.3707
mp-29014,P2S3,2.4837
mp-29016,SrThBr6,2.0636
mp-29018,ZrSnCl6,2.2258
mp-29019,Rb3IO,0.6342999999999999
mp-29027,TaI2O,0.8813000000000004
mp-29030,ThTl3F7,3.2195
mp-29048,Sr(BiO2)2,2.5577
mp-29062,ThZr2F12,5.4973
mp-29067,S2N2Cl,2.5722
mp-29072,Nb2SiTe4,0.3394000000000004
mp-29073,Nb2GeTe4,0.25450000000000017
mp-29074,Te7As2F12,0.9304
mp-29081,P4SO7,4.0532
mp-29085,Sr5Zr3F22,5.3638
mp-29090,Rb4Au6S5,1.6980000000000002
mp-29094,Nd3PO7,4.27
mp-29107,Rb2Hg3Te4,1.0159
mp-30373,RbAu,0.3714000000000001
mp-30416,Rb4Sn2Au7,0.13680000000000006
mp-30456,SrLiBi,0.5558000000000001
mp-31320,Nd(C2N3)3,3.5983
mp-31355,Sr3Tl2O6,0.7726000000000002
mp-31356,Sr3MoN4,2.2289
mp-31358,RbBO2,3.9289
mp-31362,Na3YCl6,5.1809
mp-35717,LiDySe2,1.5621999999999998
mp-35735,Gd2Zr2O7,2.1069
mp-35769,Sr4Lu3F17,6.6819
mp-3584,NdPO4,5.675000000000002
mp-35899,LiMoO2,1.8266
mp-35906,Y(AgCl2)3,2.8066
mp-35929,LiMnO2,0.9377999999999996
mp-36029,ErAgS2,0.6766999999999999
mp-36086,Li3NbO4,1.0370999999999997
mp-3615,Nd(BO2)3,5.4208
mp-36194,Ba2TiO4,1.8824
mp-36234,NaTlO2,0.7043999999999997
mp-3626,SrZrO3,3.4160000000000004
mp-505253,U2V2O11,1.9561
mp-505258,PrFePO,0.3502000000000001
mp-505259,SmFePO,0.3746999999999998
mp-505260,Te10Mo3I10,1.1818
mp-505270,TiSO5,2.5707
mp-505274,Na2SO4,5.0264000000000015
mp-505284,Pb3(BrO)2,2.3882
mp-505288,CaAl2Si2(H2O5)2,5.0391
mp-505309,Si2P2Pt,0.4765999999999994
mp-505328,V(HgO2)2,1.4376
mp-505345,SrV2(P2O7)2,1.5044999999999995
mp-18075,Na2TiF6,4.6663999999999985
mp-18109,RbDy(SO4)2,5.6663999999999985
mp-18112,Sr2Ge2Se5,1.1252
mp-18130,Nd2Si2O7,4.6637
mp-18157,SiP2O7,5.787999999999999
mp-18164,Tb3S3N,1.4081
mp-18169,RbEuPO4,0.8320999999999996
mp-18183,YSnF7,4.8968
mp-18199,Sr3TaAs3O,1.3209999999999995
mp-18224,Rb6Ge2O7,2.8402000000000003
mp-18230,Si(Hg2Se3)2,0.14360000000000014
mp-18243,K2Si3SnO9,3.8296
mp-18247,Sr3ScRhO6,2.2663999999999995
mp-20687,Sr2LuRuO6,0.11410000000000008
mp-20726,SrCaSn,0.2909999999999999
mp-20727,Sb2PbO6,1.9265
mp-20740,Tl4Te3Pb,0.11010000000000007
mp-22303,Rb3InS3,2.262
mp-22325,P2Pb2O7,3.6475
mp-22327,PuGa3,0.0176999999999996
mp-22329,NaNd2OsO6,0.5409999999999999
mp-22355,Sr2InSbO6,1.7508999999999997
mp-24157,PH8N2O3F,4.7799
mp-24171,SrPH3O4,5.7674
mp-24172,H2SO4,6.027
mp-24182,Rb2ZnH12(SeO7)2,3.6833
mp-24196,Tl2CuH12(SO7)2,0.7928999999999999
mp-24197,Rb2CuH12(SO7)2,0.6003999999999999
mp-24205,SrHI,3.5902000000000003
mp-24212,RbP(HO)2,5.1547
mp-24214,KPH3O4F,5.727499999999999
mp-24215,ScH3Br3N,3.1435000000000004
mp-24216,ZnHgAsHO5,1.3969
mp-24217,Sc2P3(HO3)3,4.6108
mp-24241,Rb3B12H12I,4.6171
mp-24263,KP(HO2)2,5.2175
mp-24267,ZnP4H16(NO8)2,4.9641
mp-24283,PH9C3Br3N,2.6660000000000004
mp-27581,Pb7(ClF6)2,4.2075999999999985
mp-27583,Sr2P6O17,5.3260000000000005
mp-27615,U(PO3)4,0.2829999999999999
mp-27628,Te3Cl2,1.3481999999999998
mp-27630,CrCl3,1.4075
mp-27634,TiBr4,2.7818
mp-27635,Rb2SnI6,0.12429999999999986
mp-27642,PaBr5,1.9592
mp-27648,Te2Br,0.6562999999999999
mp-27650,RbB10H9,4.4008
mp-27655,Te2I,0.6558000000000002
mp-27656,Zn2(PS3)3,1.7947000000000002
mp-27664,TiPCl9,2.1639
mp-27669,HS3N,3.0889
mp-27670,Rb4In2S5,2.0926
mp-27673,TaPS6,0.8658000000000001
mp-27678,Y2Cl3,0.7587000000000002
mp-27684,Tl4O3,1.0973000000000002
mp-27689,PH4Br,3.9898
mp-27690,Sr3Zr2O7,3.0929
mp-27697,ThI4,1.8297
mp-27698,Y6UO12,1.9486
mp-27700,Sb4Br2O5,2.376
mp-27708,BiI,0.927
mp-29109,SiI3,2.8485
mp-2911,Ba3(SnP2)2,0.8061999999999996
mp-29114,Re3Te4Cl5,1.2409
mp-29123,Se2Br3N,1.2256
mp-29124,Se2NCl5,2.6860000000000004
mp-29133,OsCl2O,0.7992999999999997
mp-29141,Re3Ge7,0.015200000000000102
mp-29155,TlB3O5,4.2226
mp-29160,TiAg2O3,1.2656999999999998
mp-29164,SrBiO3,0.3111000000000001
mp-29168,Rb3BiSe3,2.0716
mp-29172,SeF4,4.1374
mp-29178,TePbF6,4.6008
mp-29179,SnCl2,3.1011
mp-29185,Te2O3F2,3.3825000000000003
mp-29190,Te4MoBr,0.855
mp-29193,Nb2Se4O13,2.427
mp-29200,KNO2,2.5269
mp-29204,P4(S2O)3,3.2175
mp-29211,V4Cu3S8,0.002400000000000624
mp-30519,Tl3PbCl5,3.2824000000000004
mp-30521,ThCN,1.5202
mp-30528,MnTlCl3,1.2884000000000002
mp-31402,Sm2GeRh3,0.007299999999999862
mp-3632,YSF,2.5592999999999995
mp-36329,SrUO4,1.9691000000000003
mp-36381,Sn(PS3)2,1.1942999999999997
mp-36407,Nd2EuSe4,0.4859
mp-3642,ScCuO2,2.3309
mp-3654,RbCaF3,6.397399999999998
mp-36592,Nd5AgSe8,1.4881000000000002
mp-3671,NaNbO3,2.3619
mp-36765,Ti(CoO2)2,1.1373999999999995
mp-36779,PNO,4.9202
mp-3682,KCuF3,0.009199999999999986
mp-36821,Nd2CdSe4,0.9937000000000004
mp-36864,Li2TiO3,2.4033999999999995
mp-36875,Na(CoO2)3,0.7191999999999998
mp-36890,TaBi3O7,2.2547
mp-37108,Sr(NdS2)2,2.1032
mp-37163,Ag2HgI4,0.09169999999999988
mp-505424,VCdCuO4,1.114
mp-505456,V6Cu11O26,0.2564000000000002
mp-505490,Rb4SnSb6,1.0848
mp-505496,RbP4N7,3.6942
mp-505561,Na2ZnP4(H4O5)4,4.893199999999998
mp-18253,SrGa4O7,2.4295
mp-18255,RbSm(PO3)4,5.2964
mp-18280,SiO2,5.6611
mp-18288,Ti(SnO2)2,1.0812
mp-18299,UF3,0.24230000000000015
mp-18305,Rb3AsSe4,1.3144
mp-18318,Tm2Si2O7,4.5925
mp-18321,Hg2Te2O7,1.5670999999999995
mp-18344,Ta2Tl4S11,1.5232999999999994
mp-18351,Sr3(GeP2)2,0.9214999999999997
mp-18365,RbCuSe4,1.0026000000000002
mp-18373,ZnSe2O5,3.0413
mp-18377,ZnS,2.0316
mp-18391,Sm2Si2O7,4.7617
mp-18407,BaSiO3,2.1249
mp-18422,RbLiZn2O3,1.8536
mp-18433,NdTaO4,3.6099
mp-18453,RbAlPdF6,0.5243
mp-18458,Sr5(SnP3)2,0.3643999999999994
mp-18464,Rb4GeO4,2.4863
mp-18466,Nd2SiSeO4,2.6009
mp-18469,SrMgP2O7,5.3660000000000005
mp-18471,Sr2UO5,2.1693
mp-18483,Rb6Si2O7,3.1374000000000004
mp-18495,SrLi(B3O5)3,5.6482
mp-18498,Sr3YRhO6,2.1512
mp-20805,PdPbF4,1.0993999999999997
mp-20811,UCoSi,0.0007000000000001451
mp-20863,Sb2Pt2O7,0.5643000000000002
mp-22414,CuSeO3,0.06260000000000021
mp-22467,Sn(PbO2)2,2.063400000000001
mp-22471,Nd2NiB10,0.0968
mp-22499,EuSnF7,0.037800000000000056
mp-22531,Ba2GdNbO6,2.71
mp-22534,SrRuO3,0.0026000000000001573
mp-22535,HfPbO3,2.416300000000001
mp-27722,Pd(S3N)2,1.2357
mp-27723,USeO5,1.7329
mp-27736,Re2P5,0.4830999999999994
mp-27741,TeAuI,1.1164
mp-27770,RhCl3,1.5212
mp-27771,Nb3Br8,0.03069999999999995
mp-27775,U(BiO3)2,1.3333000000000004
mp-27780,TcCl4,0.7828999999999999
mp-27782,XeIF7,3.0663
mp-27786,SbAs2Cl13,1.1627
mp-27787,NbPCl10,2.2683
mp-27788,TaPCl10,2.3345
mp-27791,SrBe3O4,4.1295
mp-27804,Rb3Cu2Cl7,0.1662
mp-27808,Te6Cl2O11,2.92
mp-27815,NbCl3O,2.4018
mp-27823,SmClO,4.876199999999999
mp-27824,PICl6,1.7714
mp-27827,Rb2TiCl6,2.1471
mp-27831,Rb2ZrCl6,3.5620000000000003
mp-27832,Tl2SnCl6,2.4814
mp-27833,Tl2TeCl6,2.5741000000000005
mp-27834,Tl2PtCl6,1.7373999999999998
mp-27857,PdBr2,0.8979
mp-27859,SbI5F6,0.9390000000000001
mp-27862,UTa2O8,1.2312000000000003
mp-27868,VNCl4,1.2547
mp-27871,RhBr3,1.2551
mp-27878,NaSb5O8,2.6771
mp-27880,Nb3Cl7,0.9765
mp-27896,BF3,8.132
mp-29212,Tl4PbI6,2.3270000000000004
mp-29215,Te4P2O13,3.0667
mp-29224,S3N2O5,2.7323
mp-29232,ZrPb3F10,4.6739999999999995
mp-29237,Tl2SnSe3,0.9887
mp-29238,TlAgSe,0.6004
mp-29254,PrIO,3.6584
mp-29260,Ti(SeO3)2,2.4445
mp-29263,UBr5,0.2927
mp-29264,SICl7,1.6598000000000002
mp-29265,Nd2(SO4)3,5.437200000000002
mp-29267,Sn5Sb2S9,0.5992999999999995
mp-29274,P2PdO6,1.6915999999999998
mp-29281,Th2P11,0.3233999999999995
mp-29282,P2PtO7,1.5013
mp-29286,TlSbF4,3.8659
mp-29288,TlGeI3,1.9199999999999997
mp-29292,B10H13,3.3318000000000003
mp-29295,Sr3Sb4S9,1.0408000000000008
mp-29299,TeSeO4,3.1769
mp-29303,Tl4Sn5S12,1.3232999999999997
mp-29304,Y2InCl7,4.0073
mp-29309,Si2H6S,4.4871
mp-29311,S3N2Cl,1.2724
mp-29313,Ta4P4S29,1.0363000000000002
mp-29320,Te3SeO8,2.6440999999999995
mp-29327,SmBrO,4.5207
mp-29332,Pt(PbO2)2,0.5213999999999999
mp-29333,Rb2PuCl5,0.08400000000000007
mp-29336,Rb2PuCl6,0.3862
mp-29337,Tl3BS3,1.4222
mp-29355,NaTeF5,5.2511
mp-29357,Zr6CCl14,1.2812
mp-30532,Tl2ZnI4,2.9359
mp-30537,TbP5O14,5.362
mp-30543,RbAg7S4,0.4418000000000002
mp-30548,TlBF4,5.7573
mp-31417,Nd3TaO7,3.4829
mp-37233,Nd2CdS4,1.6895999999999995
mp-37331,Sr2Co2O5,0.02090000000000003
mp-37473,TiOF2,1.8523
mp-37509,NbFeO4,1.8479999999999996
mp-37680,LiGdSe2,1.2090999999999998
mp-37836,Al(HO)3,4.9076
mp-37873,Li3ErBr6,4.3485
mp-37879,LiYSe2,1.5505
mp-37950,Na3(W2O3)2,0.03180000000000005
mp-38017,Na2PtO3,0.6193999999999997
mp-38035,SrCO3,4.6569
mp-38090,Fe2CuO4,0.022299999999999542
mp-38099,Rb4Cl2O,1.5163000000000002
mp-38152,Sr(SmSe2)2,1.7782999999999998
mp-38222,NaCN,5.2876
mp-38284,Ce2Nd2O7,1.7118000000000002
mp-38307,MgAl2O4,4.5368
mp-38605,Sn(BiTe2)2,0.4211
mp-38695,LiTbSe2,1.5368000000000004
mp-38771,Gd2MgS4,1.3708999999999998
mp-38802,Ga2CoO4,0.9615
mp-38805,Sm5AgSe8,1.4720999999999995
mp-38807,Y7ReO14,0.9237000000000002
mp-38819,Ho10Ti6O27,1.7341999999999995
mp-18506,SmZrF7,6.0508000000000015
mp-18511,NdF3,7.667999999999999
mp-18529,Tm2S3,2.2738000000000005
mp-18542,Nd2SiTeO4,2.0488
mp-18575,Nb2Zn3O8,2.9667000000000003
mp-18576,Tm2Cu(B2O5)2,0.6612999999999998
mp-18582,Rb2Ti(Si2O5)3,3.4853
mp-18585,RbAgSe4,1.1614000000000002
mp-18610,Sm2SiSeO4,2.6087
mp-18612,Rb2MoS4,1.575
mp-18619,Na2Ge2Se5,1.5615
mp-18629,NaTmGeO4,3.6137
mp-18635,Sr6GaN5,0.3096000000000001
mp-18639,La2Si2O7,4.5641
mp-18651,Sr3DyRhO6,2.1402000000000005
mp-18652,Sr3HoRhO6,2.1668
mp-18658,RbLaSiS4,2.7894
mp-18660,Sr(ScTe2)2,0.4482000000000008
mp-18673,CsZnPO4,3.8806
mp-18677,PrSc3(BO3)4,4.3892000000000015
mp-18691,Rb2Ni3Se4,0.2661
mp-18705,Sr3TbRhO6,2.1142
mp-18729,V2Co(PO5)2,1.5733
mp-18731,Fe3O4,0.5828999999999995
mp-18737,Nd2NiO4,1.7465000000000002
mp-18958,UMoO6,2.1682
mp-18996,TlV3O8,2.003
mp-18998,Sr4Mn3O10,1.2990000000000002
mp-19002,TmNiO3,0.2942
mp-19021,BaCo2(PO4)2,2.3069
mp-22551,UP2(PbO5)2,1.7665999999999995
mp-22566,TlInS2,0.6884000000000006
mp-22577,Pb3SO6,2.8022
mp-22587,Cd(InSe2)2,0.4579000000000004
mp-27907,Sb6Pb4S13,0.8506
mp-27925,KEr2F7,6.9713
mp-27927,NbAlO4,3.3831999999999995
mp-29363,Rb3GaP2,0.8513999999999999
mp-29368,Th2Ta2O9,3.4214999999999995
mp-29369,Sb7F29,3.5953
mp-29384,Rb3TlCl6,2.274
mp-29391,SbCl3F2,1.8283
mp-29397,SiTePt,0.3365999999999998
mp-29405,RbSnI3,2.0996
mp-29412,Ta3Br7,1.2286
mp-29416,Pr5C2Br9,1.5334
mp-30580,SrGaCu2,0.0987
mp-30699,SmCu6,0.04329999999999945
mp-3070,Na2CO3,3.8437
mp-31487,NbI5,0.5982999999999998
mp-31489,PNF2,5.0738
mp-31507,Sb2Te4Pb,0.2673000000000005
mp-31532,CoPO4,0.8085
mp-31537,LiCoPO4,2.9335
mp-31540,LiCoPO4,2.6999
mp-31541,LiCoPO4,2.9248000000000003
mp-31553,LiCoPO4,3.09
mp-31555,LiCoP2O7,0.998
mp-31560,Li2Co(PO3)4,3.154
mp-31578,Rb3CoO2,1.3335
mp-31580,Li2CoP2O7,2.9940999999999995
mp-31582,CoP2O7,0.025799999999999827
mp-31583,LiCo(PO3)3,3.0315
mp-31585,LiCoPO4,0.7424999999999997
mp-31591,LiCoPO4,2.7419999999999995
mp-31592,Li3Co3(PO4)4,1.1451000000000002
mp-31594,LiCoPO4,2.6302
mp-3160,Pr2Si2O7,4.8385
mp-31600,LiCo(PO3)4,0.8740000000000001
mp-31603,LiCo(PO3)4,1.2302
mp-31604,Li2CoP2O7,3.1026
mp-31609,Li3Co3(PO4)4,0.8463999999999999
mp-38916,Y3Pb4F17,5.0725
mp-38950,Ce2Y2O7,1.6482
mp-3901,NdNbO4,3.6582
mp-39025,NbO2F,1.6515
mp-39033,Sr(NdSe2)2,1.7524000000000002
mp-3904,Mg2GeO4,3.0734000000000004
mp-39066,CsU2F9,0.000199999999999978
mp-39072,Na3(CoO2)4,0.3434999999999999
mp-39123,Na3Zr2Si2PO12,4.2135
mp-39215,Zn3GaB6PO12,4.0713
mp-39226,SrLa4TiAl4O15,2.1
mp-3926,NbAg7S6,0.7723999999999998
mp-39260,Na2CaPO4F,4.1045
mp-3930,Sc2MnS4,0.6131000000000002
mp-3931,SmSF,1.2296999999999998
mp-3932,Ca3Si2O7,4.4296
mp-3941,LiYF4,7.3177
mp-39419,NdTiCdSbO7,2.5106
mp-39483,SrLaTiMnO6,0.08319999999999972
mp-3954,PrPS4,2.277
mp-39626,SrLaMnWO6,2.0287999999999995
mp-39647,Na6Al4Fe(Si4O13)2,2.9765
mp-3967,NaNO,3.3843
mp-3992,PrSF,1.2541000000000002
mp-39933,TaFeO4,2.2745
mp-40134,ZnSiH12(OF)6,5.0995
mp-40144,SiNiH12(OF)6,5.1913
mp-40286,NaLiLa2Ti4O12,1.6749
mp-4030,Rb2Pt3S4,1.4507999999999996
mp-4038,Sm3S3N,1.3056
mp-4048,Sr6(RhO3)5,0.0046999999999997035
mp-40484,NaNd3Ti2(SbO7)2,2.1497
mp-4049,U2P2O9,0.2285000000000004
mp-4052,Rb2Mn3Se4,0.4188000000000003
mp-40668,NaCoP2HO7,3.0988000000000007
mp-40685,NaSm3Ti2(SbO7)2,2.2791
mp-4077,Cd(CN)2,6.0857
mp-40793,Si3N4,1.8186
mp-40830,NaSr3LaTi5O15,1.8642000000000003
mp-40886,ZnC2S2(OF)6,5.5243
mp-41092,AsSClOF8,3.9969
mp-4112,Tl2SO4,3.7965
mp-4135,RbPO3,5.1091000000000015
mp-4136,CePO4,0.18820000000000012
mp-4138,Rb2CO3,3.2778
mp-4160,Tl3PSe4,1.4779
mp-4165,TaNO,1.9319999999999995
mp-4180,Ca2SiO4,4.6785
mp-41837,RbTiZnOF5,3.1708
mp-41963,CaLaMnFeO6,1.5305
mp-532444,Zr3Sc4O12,3.9251
mp-542501,Rb2U3(TeO7)2,1.8359
mp-542512,NaPr2RuO6,0.4730000000000003
mp-554930,Nb2AgPS10,1.3724999999999996
mp-559064,SnP2(Cl5O)2,2.8617
mp-559078,SrVF5,2.3682000000000003
mp-559083,Ca2MgSi2O7,4.6042000000000005
mp-561207,UV2O8,2.1575
mp-567011,SrFeP(O2F)2,2.1976
mp-567012,Ni3B7ClO13,3.1032
mp-567027,Y2(MoO4)3,3.5531
mp-571369,Y(BH4)3,4.5766
mp-532524,TiZn2O4,2.04
mp-532526,Li2PdO3,0.0006999999999997009
mp-532565,SrLa7TiGa7O24,1.7512
mp-532617,Rb16Yb3Ti13(PO4)24,0.000399999999999956
mp-532626,NdAl6Si30(N15O)3,2.9631000000000007
mp-532700,Sr3La21Zn2(Cu5O24)2,0.059399999999999224
mp-532768,YZr5Si5PO24,3.9082
mp-532803,YAl3(Si5N8)3,3.0497
mp-5338,ZnSeO3,3.9227
mp-5347,KAlF4,6.7863000000000016
mp-534901,Sr10P6BrO24F,4.8553
mp-534935,Sr3Pr10Al12Si18(N2O)18,3.0028000000000006
mp-535004,Zn2P3H19C4(NO6)2,4.5062
mp-5377,YTaO4,4.0314
mp-5388,Zn(SbO2)2,2.720800000000001
mp-5392,Mg2SiO4,3.5073000000000003
mp-540022,MnPO4,0.5091999999999999
mp-540026,Li2FeP2O7,4.1734
mp-540038,LiMo(PO4)2,2.4819
mp-540045,Li2Mn(PO3)4,5.0535000000000005
mp-540064,LiCo(PO3)4,0.9577
mp-540073,LiFe(PO3)4,2.5709
mp-540077,Fe(PO3)4,0.010599999999999945
mp-540091,NiP2O7,0.011299999999999866
mp-5401,Sr2B2O5,4.283
mp-540113,Li3Cr2(PO4)3,3.0299000000000005
mp-540123,LiFePO4,3.4967
mp-540125,LiMnPO4,3.5916999999999994
mp-540129,Li3Cr2(PO4)3,2.8178000000000005
mp-540133,LiCoP2O7,0.6818
mp-542567,Rb2Cd3H6S3O16,3.2717
mp-542604,AsS,2.0899
mp-542609,AgAsS2,1.5178999999999996
mp-542611,Tl2S7N8,1.2475
mp-542622,P4O7,4.1519
mp-542623,Tl2SnS3,0.9423999999999996
mp-542630,P4S9,2.6953
mp-542635,SeN,1.8778
mp-542642,KSbSe2,1.4444
mp-542654,RbIn3S5,1.1735000000000002
mp-542697,Rb2RuO4,0.5314999999999999
mp-5427,Mg2P2O7,5.3203
mp-542700,RuC4(O2F3)2,0.016199999999999992
mp-542737,TiZn2O4,2.3069
mp-542738,SN,2.3546
mp-542745,PH6CNO3,5.6659
mp-542750,UCu5Sn,0.0037000000000002586
mp-542767,Sr2TmRuO6,0.1349999999999998
mp-542769,Sn(CO2)2,2.6084
mp-542772,CsAgCl2,2.3368
mp-542802,YCuPbS3,1.5852000000000004
mp-554935,Pr8Sb2S15,1.8916
mp-554942,SbTe(IF2)3,1.9103
mp-554944,TiSO5,2.1049
mp-554952,Te2Pb3(ClO3)2,2.6478
mp-554954,Fe2(SO4)3,2.2129
mp-554957,Te3I(OF5)3,1.9785
mp-554961,ZnS,0.0010999999999998786
mp-554964,Pr7BP2O17,4.6897
mp-554994,Ta2Tl3Cu3S8,1.8941000000000003
mp-554999,ZnS,2.0299
mp-556894,Rb2SbAuS4,1.5357999999999998
mp-556908,Nd5As4(ClO4)3,3.6757
mp-556910,Sm3SiS6Cl,2.5571999999999995
mp-556918,NbPO5,2.2571
mp-556927,RbFeF4,2.8280000000000003
mp-556932,TlPO3,3.6020000000000003
mp-556940,MgSiO3,3.8758
mp-556950,ZnS,2.0323
mp-559089,PS2N3(Cl2O)2,3.945
mp-559096,Rb2TeH6SO10,3.0601
mp-559104,Pr4B10O21,4.990399999999998
mp-559113,ScH24C3S3(N3O5)3,4.3525
mp-559115,P2RhClF6,1.4247
mp-559123,YSiNO2,4.0731
mp-559126,NaZr2CuF11,0.5941000000000001
mp-559136,CaH8(NO5)2,3.5334
mp-559143,Pb3SO6,2.9360000000000004
mp-559160,NaSmSe2O7,3.3052
mp-559162,SiB11H10C4F11,3.4362
mp-559168,Sb2(KrF4)5,1.1692
mp-559170,V2Co(PO5)2,1.6270000000000002
mp-559182,P2IrClF6,0.8571
mp-559184,Zn2Si3Pb4SO15,3.4961000000000007
mp-559187,NaVF4,2.0363
mp-559198,Rb2Mo3O10,3.3707
mp-559219,Zr(PO3)4,4.1158
mp-559224,Sr3Al2Cl2O5,4.2155
mp-559227,RbGeBiS4,1.9799
mp-559231,Se2S(NCl)2,1.6977
mp-559233,SeS4N3Cl5,2.3783
mp-559237,Nd3Si2S8Br,2.7288
mp-559243,Nd2Ta2Cl2O7,3.0798
mp-559254,Rb2U3(IO5)4,1.8861
mp-559268,OsXe(O2F3)2,2.6167
mp-559273,SiO2,5.6598
mp-559276,AlBPbO4,3.0814000000000004
mp-559278,K2S,2.0512
mp-559283,TiSO5,2.1002
mp-559284,Rb2Al2B2O7,4.1788
mp-559288,Gd(PO3)3,2.9356
mp-561214,SbH3CSCl6O,2.0032
mp-561228,Rb4Te8O23,1.2081
mp-561232,NaSm(PS3)2,2.793
mp-561236,Pb13(Cl3O5)2,1.8938
mp-561241,USb3O2F17,2.4478
mp-561245,Sr8Si2PtO14,2.254
mp-561248,SmCuTeS,0.09370000000000013
mp-561251,Rb2Y(NO3)5,3.3341
mp-567037,ZrMnTlF7,4.4497
mp-567046,TbMoClO4,2.7455
mp-567062,SrLiFeF6,4.1239
mp-567072,NaV6O11,0.8658999999999999
mp-567075,Bi2MoO6,0.5907
mp-567080,V4O7,0.581
mp-567146,Si3PH27C9BrN2,2.8687
mp-567153,Mn3B7BrO13,3.8383
mp-567169,BaMo2(PO4)4,2.7048000000000005
mp-567178,PbI2,2.3872
mp-567182,NaW6CCl18,0.1048
mp-567196,Cs3Sb2Cl9,2.4695
mp-567199,PbI2,2.4019999999999997
mp-567205,Sm2MnNiO6,1.7384
mp-567225,SiNi2(P2O7)2,4.3349
mp-567246,PbI2,2.4098
mp-567252,Nb3Se12I,0.0849000000000002
mp-567256,P2H19C6I2NCl4,2.1525000000000003
mp-567259,CdI2,2.419
mp-567267,Tl4Mo5O17,2.5426
mp-567269,TeI4,1.8286
mp-567273,HfI4,3.2852
mp-567279,ZnCl2,3.8763
mp-567287,Rb6U(Mo2O9)2,2.3604
mp-567288,Ni3B7BrO13,2.952
mp-567296,CdI2,2.3218
mp-569203,Tl3Bi2I9,2.3647
mp-569207,K2OsNCl5,1.6187
mp-569221,Sm(C2N3)3,3.5748
mp-569224,SbI3,2.2015
mp-569246,Tl2HgGeTe4,0.08859999999999958
mp-569261,Pr7CoI12,0.06640000000000024
mp-569272,Cs2Se,1.8845
mp-571387,MgCl2,4.2732
mp-571394,KC2N3,4.6487
mp-571404,Hg3(SeI)2,1.1291000000000002
mp-571412,RbNa5(WN3)2,1.8418
mp-571418,RbYbBr3,4.4851
mp-571424,TiCl3,0.014899999999999913
mp-1012435,PbS,0.6898999999999997
mp-1096944,CsNbO3,1.2659000000000002
mp-1098706,CeSe2,0.12040000000000005
mp-13061,Y2O3,4.0836000000000015
mp-15109,Sm(ZnP)3,0.13140000000000066
mp-17552,CaSiO3,4.7326
mp-17560,Na2UO4,2.0732000000000004
mp-19400,Sr2NiWO6,3.3599
mp-20815,SnPbF4,3.3454
mp-21554,P3Pb5O12F,3.72
mp-21563,SrAlBO4,4.2978999999999985
mp-22255,RbInTe2,1.1089000000000002
mp-22452,PuCo3,0.001200000000000756
mp-23331,Si3(BiO3)4,3.8979
mp-23364,CsLiCl2,5.0329
mp-2341,Li3N,1.218
mp-23492,Si(Bi3O5)4,2.3477999999999994
mp-23933,AlH3,2.1979
mp-24126,Sr3Al2(HO)12,3.8859
mp-27228,Tl6Si2O7,1.5876
mp-27477,TcOF4,0.9929
mp-27801,TlAgI2,1.5659
mp-28676,S2O5F2,5.5878
mp-29993,TaAgF6,3.555
mp-34047,H(WO3)2,0.4015
mp-34993,LiAlO2,4.504
mp-35078,BaMnO3,0.6737000000000002
mp-38843,CaTa2O6,2.0946
mp-3955,AlPO4,5.612399999999999
mp-4035,RbReO4,4.1189
mp-40802,BaSrLaBiO6,1.8732
mp-505110,FeCuO2,0.9379000000000004
mp-505562,CrCuO2,1.4692999999999996
mp-540138,MoPO5,1.2695
mp-540146,MnPO4,1.0778
mp-540152,MnP2O7,1.0364
mp-540161,LiMn(PO3)4,1.5347
mp-540177,FeP2O7,0.01719999999999999
mp-540182,LiVP2O7,2.1508
mp-540192,Li2MnP2O7,3.1116
mp-540203,LiCo2P3O10,3.0638
mp-540208,Cr3(P2O7)2,1.1186
mp-540209,Li2Cr3(P2O7)2,3.1927000000000003
mp-540221,LiMnP2O7,1.3030000000000002
mp-540222,MnP2O7,1.0426
mp-540223,Li2MnP2O7,4.2548
mp-540231,Li2FeP2O7,4.1959
mp-540234,Li2NiP2O7,3.5678
mp-540242,LiMnP2O7,1.7152
mp-540256,NiPO4,1.1558
mp-540257,Li2CoP2O7,3.0443
mp-540260,Li2Cr(PO3)4,3.4217
mp-540263,VPO5,1.4709000000000003
mp-540269,LiMoP2O7,3.7065
mp-540272,LiNiP2O7,0.029900000000000038
mp-540276,LiVPO5,1.6961
mp-540277,VPO5,1.6329000000000002
mp-540286,LiNiP2O7,0.012499999999999956
mp-540293,CrPO5,1.5296999999999998
mp-540296,Li2Mo(PO4)2,1.7581