task_id,pretty_formula,band_gap
mp-763076,FeOF,0.7301000000000002
mp-765102,LiTi(PO3)4,0.18540000000000045
mp-765104,Li2V(CO3)2,2.6087
mp-765106,Li2V(CO3)2,2.647
mp-765108,Li2V(CO3)2,2.4831000000000003
mp-765111,LiVFeP2(HO5)2,1.5472
mp-765112,LiVCrP2(HO5)2,1.1987
mp-765113,Li2V(CO3)2,2.5998
mp-765114,Li2Fe(CO3)2,3.4821
mp-765115,Cr3(OF)2,1.4514
mp-765120,Li2Mn2OF6,1.2127
mp-765122,LiVF6,3.1525
mp-765124,LiV2F7,2.2507
mp-765126,Li2Co(CO3)2,2.0957000000000003
mp-765128,Li2Co(CO3)2,2.0688
mp-765131,Li2Mn2OF6,0.7190000000000001
mp-765141,LiNiPO4,3.3138
mp-765143,Li2NiP2O7,2.6436
mp-765144,Li2NiP2O7,3.4129
mp-765151,LiMnVP2(HO5)2,0.8496999999999999
mp-765177,LiVF5,1.9674
mp-765185,LiV2F7,2.6577
mp-765186,Li2VF5,2.1785
mp-765187,WOF4,5.0623000000000005
mp-765204,LiMn2F7,0.4005
mp-765205,CrOF4,2.3223
mp-765208,LiVF4,1.9744
mp-765210,W7(OF5)6,3.4889
mp-768024,V2P2O7,2.7873
mp-768034,V4P2O13,1.4524000000000004
mp-768042,Na2FePCO7,2.4519
mp-768053,Na2FePCO7,2.444
mp-768057,Li2VCrO4,1.7728000000000002
mp-768061,NaMnPCO7,0.966
mp-768065,VCrO3,1.2604999999999995
mp-768072,NaMnPCO7,0.9575
mp-768077,Na2FePCO7,2.4229000000000003
mp-768081,Na2FePCO7,2.4379
mp-768085,Na2MnPCO7,0.5288000000000002
mp-768094,Na2FePCO7,2.4388
mp-771084,Te(WO4)3,1.6167
mp-771091,Li2Cr2O7,2.1985
mp-771126,Lu2TiO5,3.1632
mp-771127,Rb4TiO4,2.8866
mp-771160,Rb2MgH4,3.3651
mp-771161,Ba3(BrO)2,2.3516
mp-771165,Dy2TiO5,3.1655
mp-771174,Ba2B2O5,3.8166
mp-771193,Ba3Y2O6,2.5398
mp-771194,Nb2Ge2O7,1.8118
mp-774181,NaLi5Mn2P2(CO7)2,3.6196
mp-774182,Li3Cr(PO4)2,2.7229
mp-774185,Mn6OF11,0.3546
mp-774189,Li8Mn7Fe(BO3)8,2.9742
mp-774228,Co(IO3)2,2.5884
mp-774233,Co(IO3)2,2.3532999999999995
mp-774240,Na3Li3Mn2P2(CO7)2,3.5313
mp-774241,NaVAsCO7,2.0022
mp-774251,LiFePO4,3.3545
mp-774258,Ti5Nb(PO4)6,0.006299999999999528
mp-774272,V12O29,0.5361
mp-774283,Re2H6PbC(NO5)2,2.4994
mp-774289,V5O12,1.0074000000000003
mp-774299,Li8Mn5Fe3(BO3)8,2.9789999999999996
mp-774303,Li6Mn5Fe(BO3)6,2.6116
mp-777955,Li2Cr(PO3)4,3.491
mp-777966,LiV2(OF)3,1.1042999999999998
mp-777990,Tm2Sb2O7,2.1304
mp-778014,Li6MnFe5(BO3)6,2.8181000000000003
mp-778029,LiMn2(BO3)2,0.6812
mp-778032,LiV2(SiO4)2,1.1361
mp-778059,Li2FeF5,3.5821
mp-778062,LiFeF5,0.8242000000000003
mp-778063,Ti3Mn2Ni(PO4)6,2.2602
mp-778064,Ga3NO3,0.9393
mp-778065,Ga3NO3,1.0145
mp-778070,Li2MnVP2(HO5)2,0.3258000000000001
mp-778102,BaYF5,6.661499999999998
mp-778141,Sm2Pb2O7,1.0092
mp-778222,Na3VO3,0.5888
mp-778250,Li3FeF6,3.7585
mp-778252,V5O12,1.0797
mp-778256,Rb2MgO2,1.8556
mp-849255,LiMn3(P3O10)2,0.02020000000000001
mp-849260,ReH8(I3N)2,0.7186000000000001
mp-849288,V2O3,0.6212
mp-849325,SbH4NCl6,1.9251
mp-849332,V2O3F,0.8026
mp-849335,Ti3N2O3,1.6496999999999995
mp-849350,LiMn3(BO3)3,0.5445
mp-849355,LiMnP2O7,0.9065
mp-849360,LiV2CrO6,1.1219
mp-849363,Fe10O9F11,0.9232999999999998
mp-849368,V3(O2F)2,0.9243
mp-849370,Fe6OF11,1.8602
mp-849375,Fe10O9F11,0.3998999999999997
mp-849377,Ni6OF11,0.8937
mp-849399,Mn2OF3,0.0121
mp-849401,Li4Co7(OF7)2,2.0318
mp-849409,V4(OF3)3,1.2401
mp-849412,V6O5F19,2.0451
mp-849421,LiV2(PO4)3,1.2601999999999998
mp-600159,NiH4C2(S2N)2,1.3418
mp-600171,ZnH8C4(N4Cl)2,4.4569
mp-600172,CuH12C5S4N,1.1785
mp-600208,ZrH36C16(NO4)4,3.7627
mp-600219,MnH12C2(NCl2)2,1.5011
mp-600262,RbBi(MoO4)2,3.1055
mp-600369,V3H8C2NO7,1.8997
mp-600520,SrCuH4(CO2)4,0.2561
mp-600579,MnH9C4NO6,2.6307
mp-601243,ZnH8C4(NO3)2,0.03400000000000003
mp-601292,RbPrP3HO10,4.8166
mp-601383,H7CSeN3O4,0.5812999999999999
mp-601696,Fe(SbO2)2,0.15559999999999974
mp-626275,Ca(H8O5)2,3.6908
mp-626279,Ca(H8O5)2,3.8913
mp-626282,Sr(H8O5)2,3.7935
mp-626287,Sr(H8O5)2,3.092
mp-626291,Ca(H8O5)2,3.3815
mp-626293,Sr(H8O5)2,3.1307
mp-626295,Ba(H8O5)2,3.5473
mp-626299,H5ClO6,3.4228
mp-626308,Ca(H8O5)2,3.3662
mp-626315,Sr(H8O5)2,3.1055
mp-626317,Ca(H8O5)2,3.4675
mp-626337,Sr(H8O5)2,3.5641
mp-626340,Ba(H8O5)2,3.7433
mp-626354,H6N4O9,1.1695
mp-626392,H6N4O9,2.8929
mp-626431,Al(HO)3,4.9443
mp-626456,As3HO6,3.0456
mp-626467,Al(HO)3,4.0103
mp-626470,Al(HO)3,5.0046
mp-626481,Al(HO)3,3.8282
mp-626483,H4SO5,5.2943
mp-626486,H4SO5,5.2574
mp-626502,Al(HO)3,4.9816
mp-626528,NbHO3,2.5186
mp-626529,H7NO6,3.4786
mp-626536,NbHO3,2.5130000000000003
mp-626547,Ti3H2O7,2.8908
mp-626552,Ca(H8O5)2,3.8139
mp-626553,Ca(H8O5)2,3.3637
mp-626562,Ca(H8O5)2,3.7409
mp-626563,Ca(H8O5)2,3.5783
mp-626564,Ca(H8O5)2,3.7376
mp-626565,Ti3H2O7,2.6194
mp-626567,Ti3H2O7,2.9330000000000003
mp-626568,Al(HO)3,3.8913
mp-626569,Ti3H2O7,2.3742
mp-626587,Al(HO)3,4.8222000000000005
mp-626631,Al(HO)3,3.8336
mp-626643,Ca(HO)2,3.7951
mp-626647,TlHO,1.4845000000000002
mp-626654,Al(HO)3,4.246
mp-626664,H2W2O7,2.6049
mp-626690,TlHO,1.5129
mp-626788,ReH3O5,3.9184
mp-626819,ReH3O5,3.8311
mp-626829,ReH3O5,1.4014
mp-626851,Fe4H14O13,1.8444
mp-626994,Ba(HO)2,4.2449
mp-627029,Ba(HO)2,4.2059
mp-627043,Ba(HO)2,4.4174
mp-627077,Ba(HO)2,4.109
mp-627119,VHO3,0.6363
mp-627291,V3(H3O5)2,1.5975
mp-627344,V3(H3O5)2,1.489
mp-627418,Ge7H18O23,2.946
mp-627442,Ge7H18O23,2.6785
mp-662523,SrTeO3,3.1740000000000004
mp-662535,PbSe2O5,3.1225000000000005
mp-662547,PSeCl9,2.244
mp-662565,K3Yb(SO4)3,0.7217
mp-662566,Ca4Al6SO16,4.4663
mp-662570,BaB2F8,7.875
mp-662572,Ta3In2Cl9,1.2974
mp-662706,SiO2,5.5366
mp-662721,TcC4IO4,2.3319
mp-662789,Te3As2(SF4)3,2.0706
mp-662810,Na5Lu(SiO3)4,3.6802
mp-662919,SbTe(SeF3)2,1.3668
mp-667281,SNClO,3.4302
mp-667291,ReHg2O5,1.4154
mp-667305,ReN(OF2)3,2.6213
mp-667309,Li2SeO4,0.010499999999999956
mp-667310,AlPO4,5.4284
mp-667315,ScNb6Cl13O3,0.9312999999999998
mp-667343,Re2(HgO2)5,1.1042999999999998
mp-667345,NbTl2PO6,2.9004000000000003
mp-667363,AlPO4,5.3889999999999985
mp-667368,SiO2,5.6294
mp-667374,NaAlSiO4,4.5413999999999985
mp-697744,LiMnP2O7,1.5734
mp-697749,LiV2(PO4)3,1.4095
mp-697753,Li3Cr2(PO4)3,2.8872000000000004
mp-697758,LiFeP2O7,2.5246000000000004
mp-697764,LiFeP2O7,2.4906
mp-697767,LiMoP2O7,4.0674
mp-697769,Mo(PO3)4,1.8631
mp-697792,LiMn2(PO4)3,0.5692
mp-697796,Li2Cr5(PO4)4,2.3367
mp-697797,V(PO3)4,1.147
mp-697811,Li2FeP2O7,3.7642
mp-697814,CoP2O7,0.2841
mp-697855,Li2Cr3(P2O7)2,2.7561000000000004
mp-697862,V4Ge13O36,1.0326
mp-697914,ZrP2(H3O5)2,4.4371
mp-697957,ZnH8C2I2(N2O)2,1.8638
mp-697974,SmP3H5NO10,5.369999999999999
mp-697977,Sr2AlH7,3.1294000000000004
mp-698164,Rb2B10H6O19,5.7894000000000005
mp-698170,Ca2B5H2ClO10,5.2288000000000014
mp-698223,Na2PH5O6,4.3817
mp-698274,ZnH8(CO2)4,2.6306
mp-698296,UH12C4SN2O9,2.2077
mp-698313,Rb2CuH4(C2O5)2,0.5337000000000001
mp-698317,NdH4C3O8,3.2944000000000004
mp-698358,NiH10C4(SN4)2,1.9155
mp-744625,ZnCrH15N5Cl4F,3.8246
mp-744631,V2PH10C2N2O8F,2.7561
mp-744710,CoPH3O5,0.1262
mp-744736,VH12N3O5F2,2.7016
mp-744751,NaMn6Al3H42(SO19)2,2.8948
mp-744811,NiH24C2S2(N3O7)2,4.9625
mp-744840,ZrH8(NF3)2,2.2485
mp-744929,Li2Cr2H4O9,2.6469
mp-744954,NiH12(NO6)2,3.3164
mp-744989,V2P2H6PbO14,0.7684
mp-744997,CrP2H16N3O10,0.07109999999999994
mp-745012,Ni2P2O7,3.603
mp-745080,Mo12PH24C6N3O40,2.3291
mp-745115,NaFe9Si6B3H2O31,0.8508
mp-745140,VH10SO10,3.0608
mp-757588,Y11Ta5O28,0.3796
mp-757590,LiSnPO4,3.4943
mp-757624,Sr3La4O9,3.8438
mp-757636,NbTlO3,0.7458
mp-757639,LiTi(PO3)4,0.1655000000000002
mp-757658,LiTi(PO3)4,0.11630000000000028
mp-757671,Li3Ti2(PO4)3,0.1153000000000004
mp-757673,LiTiP2O7,0.03600000000000048
mp-757690,LiNb(PO3)4,0.18080000000000007
mp-757723,SrH4(SO4)3,5.8656000000000015
mp-757747,LiSn4(PO4)3,2.8044999999999995
mp-757788,LiNb(PO3)4,0.8601000000000001
mp-757791,SmY15O24,4.0144
mp-757800,LiCuCO3,1.5920000000000003
mp-757806,LiSn(PO3)4,0.05659999999999999
mp-757816,LiNb(PO3)4,0.2860999999999998
mp-757817,Li2Nb(PO4)2,1.1534000000000004
mp-757845,LiNb(PO3)4,1.0876
mp-757853,Na4Ti5O12,2.9088
mp-757874,LiSiBiO4,3.0288
mp-757884,Li2Sn3(P2O7)2,2.5153000000000003
mp-757885,LiSnPO4,2.7596
mp-757886,NdHS3O11,5.4827
mp-757890,LiSiBiO4,3.4191000000000003
mp-757899,Li3Sn2(PO4)3,2.1751
mp-757901,LiSnPO4,3.3427
mp-757909,KP(HO2)2,5.2602
mp-757924,SbH5(Cl3O)2,1.7935
mp-757945,LiSnPO4,3.5738000000000003
mp-757946,Li2SnP2O7,3.1648
mp-763078,FeOF,1.3428
mp-763081,FeOF,0.5248999999999997
mp-763087,FeOF,1.3562999999999998
mp-763097,FeOF,1.2588
mp-763103,LiMnF3,3.6206
mp-763123,FeOF,0.24189999999999975
mp-763124,Fe4OF7,1.6849
mp-763127,FeOF,0.4964999999999997
mp-763130,LiNiPO4,3.1501
mp-763132,LiV(CO3)2,2.3653
mp-763138,Co3OF5,0.7751999999999999
mp-763139,FeOF,0.2589000000000001
mp-763141,LiMn2F9,0.9941999999999998
mp-763166,FeOF,0.3843999999999999
mp-763168,FeOF,0.2892000000000001
mp-763169,V2(OF)3,1.4347
mp-765218,VF5,2.9955
mp-765225,Li2MnF6,2.4326
mp-765241,VF5,2.9964000000000004
mp-765242,V2F7,0.7778
mp-765260,LiVOF2,1.3648999999999998
mp-765262,Li3Cr(BO3)2,3.0780000000000003
mp-765263,LiVF5,1.9073
mp-765266,LiMn2F7,1.5734
mp-765267,Li3Fe(BO3)2,2.4444000000000004
mp-765269,Mn2F7,0.4626999999999999
mp-765273,VF5,3.0026
mp-765275,Li3V2F12,0.6619
mp-765277,LiSnPO4,3.2846
mp-765283,Li5TiV3O8,0.6277999999999997
mp-765294,SrP2(H2O3)2,6.473000000000001
mp-765305,LiVCrP2(O4F)2,0.9908
mp-765306,Li5VF8,3.0323
mp-765317,LiVFeP2(HO5)2,1.3801
mp-765324,LiMnVP2(HO5)2,0.8792
mp-765329,LiVF5,1.9417
mp-765336,LiVOF2,1.0644000000000002
mp-768099,V4Si4O13,0.6473999999999993
mp-768108,Na2FePCO7,2.4156
mp-768257,Na4Bi2C4SO16,0.4246000000000003
mp-768280,Sm2B4O9,5.402000000000001
mp-768281,Ho2Ge2O7,3.3100000000000005
mp-768283,UAs2H6O11,2.3704
mp-768319,LiNi2(PO4)2,0.863
mp-768320,LiLa5Ti8O24,1.9374
mp-768323,LiFe2(PO4)2,0.9889
mp-768337,CuReO4,0.6761999999999997
mp-768341,Ba2YBr7,3.3024000000000004
mp-768345,Ba2B2O5,3.8444
mp-768355,BaYF5,6.8950999999999985
mp-768361,Li2Fe2S3,0.05370000000000008
mp-768369,Ba2YF7,6.2373
mp-768372,SbBrO,2.5399000000000003
mp-768373,Ba2YBr7,3.8551
mp-768378,Ba2YBr7,3.6402
mp-768399,Ba3Y2Br12,3.7764
mp-771211,Lu2(WO4)3,3.8813
mp-771212,Li3Mn(BO3)2,1.4308
mp-771213,Li4TiCrO6,1.2276000000000002
mp-771214,Rb2S2O7,5.1058
mp-771215,Li4TiCrO6,1.2775
mp-771216,Sr3(AsO4)2,3.3602000000000003
mp-771222,Hg2W2O7,2.3998000000000004
mp-771226,Li9(CoO4)2,0.5753999999999999
mp-771229,LiMnB2O5,1.4263
mp-771238,Y2TeO6,2.2227
mp-771241,Ta3AgO8,2.2966
mp-771253,Sm2Zr2O7,3.6352
mp-771256,Sr3(AsO4)2,3.5424
mp-771265,TiMn9O20,1.5893000000000002
mp-771266,Li24Ti5Cr7O36,1.2071999999999998
mp-771273,Li24Ti5Cr7O36,1.2211000000000003
mp-771277,Li24Ti5Cr7O36,1.1717999999999995
mp-771282,Li24Ti7Cr5O36,1.2134
mp-771283,Li24Ti7Cr5O36,1.2496
mp-771284,Li24Ti7Cr5O36,1.3152999999999997
mp-771285,Li24Ti7Cr5O36,1.2939000000000005
mp-771286,Li24Ti7Cr5O36,1.2749
mp-771292,Li2FePCO7,2.1595
mp-771294,Li2FePCO7,2.3412
mp-771296,Li3Mn(BO3)2,1.3455000000000004
mp-774309,Li2MnV(P2O7)2,0.3634
mp-774316,Mn6OF11,0.5436
mp-774323,Li4MnV3(P2O7)4,0.4303000000000001
mp-774324,Li6MnFe5(BO3)6,2.8479
mp-774335,Sn2P2O7,3.1008000000000004
mp-774346,Li3V2(PO4)3,0.02190000000000003
mp-774349,Li6MnFe5(BO3)6,2.8355999999999995
mp-774352,Li3Co2(PO4)3,0.9897
mp-774358,Li2MnV(P2O7)2,0.4711999999999998
mp-774359,V3OF11,0.7974999999999999
mp-774362,Li6Mn5Fe(BO3)6,2.6042
mp-774364,LiCrPO4,2.5125999999999995
mp-774366,Li3MnFe2(BO3)3,2.713
mp-774370,Li6Mn5Fe(BO3)6,2.6092000000000004
mp-774373,Li3MnFe2(BO3)3,2.7431
mp-774374,Na3FeO4,0.4108000000000001
mp-774377,Li4Mn3Fe(BO3)4,3.0120000000000005
mp-774379,Cr4OF11,0.8695999999999999
mp-774382,Li2MnF4,3.8068
mp-774385,Fe5(OF4)2,1.3142
mp-774387,V4OF11,1.4979
mp-774389,Li4MnV3(P2O7)4,0.31710000000000016
mp-774393,Li2MnFe(BO3)2,2.7044000000000006
mp-778287,LiFe2F5,3.1841
mp-778289,LiFeF3,3.0155000000000003
mp-778299,Li2VPO5,1.2372999999999998
mp-778305,Li3V2(PO4)3,2.0174000000000003
mp-778306,Na4Fe2C4SO16,0.4318
mp-778307,Li2MnFe(PO4)2,3.6406
mp-778319,LiMnP2O7,1.1650999999999998
mp-778331,Li5Fe8(BO3)8,1.5812
mp-778350,Li2MnFe(BO3)2,3.1508000000000003
mp-778353,Li8Mn7Fe(BO3)8,2.8977000000000004
mp-778369,V3OF11,1.5402
mp-778397,Li2Sn(BO3)2,3.0464
mp-778401,LiVF4,1.2433999999999998
mp-778405,LiFe2F5,2.9965
mp-778451,Na6Sn2O7,1.962
mp-849441,LiVP3HO10,2.3312
mp-849482,Mn12O7F17,0.2015
mp-849501,Li3V3P8O29,1.1291
mp-849514,LiMn3(BO3)3,0.17520000000000002
mp-849515,LiMnPO4,3.1179
mp-849517,Mn6O5F7,0.47200000000000003
mp-849518,Mn12O7F17,0.2733000000000001
mp-849542,Li2MnVP2(HO5)2,0.5762
mp-849543,V4(OF3)3,1.6749
mp-849545,Mn12O7F17,0.3935
mp-601902,Tl2HPtC5N5O,3.2976
mp-603254,PH9AuC3S3Cl,2.8803
mp-603414,Rb2TeH6SeO10,3.0242
mp-603612,TiP4H8N2O13,2.7679
mp-603633,SnP4H8N2O13,3.7786
mp-603910,ZnH14C2(N2Cl)4,3.9837
mp-604583,RbH5C7SO5,3.7907
mp-604964,PH9C(NO)4,5.0135
mp-605047,P2H6C5N2Cl4O,2.6879
mp-605052,PH3W(CO)5,2.8337
mp-605091,VSnH9(CO)3,2.5258000000000003
mp-605120,CuH10SO9,0.009199999999999986
mp-605694,NdH12S2NO12,5.1191
mp-607464,Re2Cl5O4,0.6223000000000001
mp-608398,NbSNCl6,1.8154
mp-608431,Os3C9S2O9,2.5069
mp-613545,RhSe2Cl7,1.8899
mp-614325,Re2Pt(CO)12,1.8279
mp-614628,Na3Ca(BO2)5,4.4278
mp-627606,V3(H3O5)2,1.5017
mp-627632,Si4H2O9,5.1536
mp-627944,Si4H2O9,5.1713000000000005
mp-644841,K2Pd(NO2)4,2.137
mp-645340,Nd(BO2)3,5.254899999999999
mp-645425,Pr7C3I10,0.012199999999999987
mp-645663,Te2Mo3Se7Br10,1.4804000000000002
mp-646895,SiO2,5.7038
mp-647116,ReNCl4O3,1.4540000000000002
mp-647342,SbP3C(NCl5)3,2.0859
mp-647553,VP2Cl7O4,2.0934
mp-647556,Tl8(CdN14)3,2.6689
mp-647575,K2ZnCl4,4.5367
mp-648117,Si2Os3C12(ClO2)6,2.5585
mp-648263,Os4C13S2O13,2.028
mp-648289,Os3C8SO8,1.7639
mp-648363,SbP3C(NCl5)3,0.4643000000000001
mp-648414,V2PS10,1.1097
mp-648469,SbP2SN3Cl10,1.8198
mp-649080,Ti2SCl12,1.9342
mp-649177,ReTe5O6F25,2.1627
mp-649632,KCo(CO)4,3.7261
mp-649676,CaSiO3,2.9075
mp-652220,PBr2N,3.1124
mp-652274,Ge2RuC4(Cl3O2)2,3.3452
mp-652353,PC2S2N3,3.2539
mp-652364,PNCl2,3.9764
mp-652407,Ru(CO)4,2.5855
mp-652479,LiZnPO4,4.1896
mp-652744,POs6C18ClO18,2.2333
mp-667383,SiO2,5.5086
mp-667447,TeAs(SeF3)2,1.4188
mp-667471,KB5O8,4.1303
mp-669328,ReTe3Br5,1.2721000000000002
mp-695307,K6Sb2H18S8O9,2.0284
mp-695536,LaH6S3(NO3)3,4.2155
mp-695694,KH18OsN6(ClO2)4,0.9834
mp-695699,Te2AsS4N4(ClF2)3,0.7736999999999999
mp-695843,SbH7(Br2O)3,0.8734
mp-695873,ZnP3H12NO13,4.825799999999999
mp-695894,NdH12(NO5)3,3.2416
mp-698424,SbH3CS2N,0.7138000000000002
mp-698522,Sb3P2H6C2NO9,0.03469999999999995
mp-698587,TiNiO3,1.7081999999999995
mp-698627,Ti5Fe11O24,1.1195999999999997
mp-698666,Li2MoO3,0.5515999999999996
mp-699008,Rb2MnV2(ClO3)2,1.2860999999999998
mp-699208,Al2S3,1.0251
mp-699266,K2MgH8(SO6)2,5.175999999999998
mp-699373,Ti7Fe13O30,1.2087000000000003
mp-699447,RbLiH4S2(NO3)2,5.2525
mp-699453,RbAs2H5O8,3.8425
mp-699606,Sb3WC6O6F17,2.888
mp-703293,P5HC(NCl6)3,1.9789000000000003
mp-704112,SmCoSe2ClO6,2.6024000000000003
mp-704114,VBi(PbO3)2,2.6272
mp-704189,CoPO4,1.2388
mp-704204,Li2MoP4O13,1.8692
mp-704236,Mn(PO3)3,0.7476000000000002
mp-704387,NaFe7(PO4)6,0.8621000000000001
mp-704546,RbNaCr2O7,2.6638
mp-705614,Sr5Fe3F19,3.1251
mp-705632,Ti3Fe7O15,1.1238
mp-705743,Ta2MnO6,2.1806
mp-705747,Ti9Fe11O30,1.3130000000000002
mp-705932,Sr10P6ClO24F,5.0933
mp-754282,SrO,2.9368000000000003
mp-754388,BaSrI4,3.2802
mp-754630,BaSrI4,3.4665
mp-754730,SrCaI4,3.0182
mp-754824,SrO,2.5643
mp-755061,SrCaI4,3.7126
mp-761488,Ti7(Fe3O8)3,1.4133000000000004
mp-761504,V5W3O20,1.1635999999999995
mp-761525,Li17Ni11O28,0.4691000000000001
mp-761543,Li7V3P8O29,0.8511
mp-761630,Li3Cr2(PO4)3,2.096
mp-761648,LiNi(PO3)3,2.994
mp-761678,Ti13(Fe5O14)3,1.4695999999999998
mp-761731,K2Li2CoO4,0.3562
mp-761824,Sr16V12O39,0.6273000000000004
mp-761830,Li3V3P8O29,0.2985
mp-762527,LiFe4(PO4)3,2.9845
mp-762548,LiFe(PO3)4,2.3914
mp-762562,Li2Fe(Si2O5)2,3.1715
mp-762579,Li2V2(PO4)3,1.146
mp-763172,FeOF,1.2819
mp-763179,FeOF,1.5710999999999995
mp-764502,Li3Fe4(BO3)4,1.6932
mp-764503,LiFe2(BO3)2,1.6146
mp-764506,Li3Fe8(BO3)8,1.4035000000000002
mp-764507,Li5Fe8(BO3)8,1.4030999999999998
mp-764508,LiFe2(BO3)2,1.7332
mp-764512,Li5Fe8(BO3)8,1.4401000000000002
mp-764513,Li3Fe8(BO3)8,1.6684
mp-764515,Li3Fe8(BO3)8,1.3367000000000002
mp-764517,Li3Fe8(BO3)8,1.2487
mp-764518,LiFe8(BO3)8,1.3962
mp-764519,LiFe2(BO3)2,1.5639
mp-764523,Li7Fe8(BO3)8,1.5200999999999998
mp-764524,Li3Fe8(BO3)8,1.3969999999999998
mp-764525,Li3Fe8(BO3)8,1.37
mp-764528,Li5Fe8(BO3)8,1.4709999999999999
mp-764529,Li3Fe8(BO3)8,1.4078000000000002
mp-764531,Li5Fe8(BO3)8,1.4737
mp-764535,Li3Fe8(BO3)8,1.4546
mp-764536,LiFe4(BO3)4,1.5153
mp-764539,Li3Fe4(BO3)4,1.344
mp-764541,Li5Fe8(BO3)8,1.3583999999999998
mp-764542,Li5Fe8(BO3)8,1.2875
mp-764543,LiFe2(BO3)2,1.7605000000000002
mp-764545,Li3Fe8(BO3)8,1.5066000000000002
mp-764546,Li3Fe8(BO3)8,1.5705000000000002
mp-764547,LiFe2(BO3)2,1.6316
mp-764548,Li5Fe8(BO3)8,1.3468999999999998
mp-764550,LiFe2(BO3)2,1.2591
mp-764552,LiFe2(BO3)2,1.745
mp-764554,Li5Fe8(BO3)8,1.3078
mp-764566,LiFe8(BO3)8,1.2399999999999998
mp-764567,LiFe4(BO3)4,1.7979
mp-764570,LiFe2(BO3)2,1.6739
mp-764573,LiFe2(BO3)2,1.6712
mp-764576,Li5Fe8(BO3)8,1.3904999999999998
mp-764586,Li3Fe4(BO3)4,1.6431999999999998
mp-764587,LiFe2(BO3)2,1.4678000000000002
mp-764589,LiFe2(BO3)2,1.7538999999999998
mp-764590,Li3Fe8(BO3)8,1.4989
mp-764591,Li3Fe8(BO3)8,1.6831000000000005
mp-764598,LiFe2(BO3)2,1.4351
mp-764611,LiFe2(BO3)2,1.43
mp-764612,LiFe2(BO3)2,1.3779
mp-764614,Li5Fe8(BO3)8,1.2200000000000002
mp-764617,LiFe4(BO3)4,1.5443
mp-764618,LiFe2(BO3)2,1.7779
mp-764619,Li5Fe8(BO3)8,1.4195
mp-764620,LiFe4(BO3)4,1.6916000000000002
mp-764621,Li3Fe8(BO3)8,1.496
mp-764622,LiMnV(P2O7)2,1.2189
mp-764624,LiFe2(BO3)2,1.7922
mp-764626,Li5Fe8(BO3)8,1.3611
mp-764629,Rb3NaV4H2O13,2.9785
mp-764643,Li5Fe8(BO3)8,1.5151
mp-764650,LiFe2(BO3)2,1.4483
mp-764651,LiFe2(BO3)2,1.6533000000000002
mp-764652,LiFe2(BO3)2,1.2226
mp-764653,Li3Fe4(BO3)4,1.3159999999999998
mp-764654,Li5Fe8(BO3)8,1.3898
mp-764656,LiFe2(BO3)2,1.7136
mp-764657,Li5Fe8(BO3)8,1.5074
mp-764658,LiFe2(BO3)2,1.6821
mp-764660,Li3Fe8(BO3)8,1.6402
mp-764662,LiFe2(BO3)2,1.4858999999999998
mp-764665,Li5Fe8(BO3)8,1.5546000000000002
mp-764672,Li3Fe8(BO3)8,1.4555
mp-764677,LiFe4(BO3)4,1.3325000000000002
mp-764678,LiFe2(BO3)2,1.8209
mp-764679,LiFe2(BO3)2,1.696
mp-764693,LiFe2(BO3)2,1.6688
mp-764702,LiFe2(BO3)2,1.5956
mp-764703,Li3Fe4(BO3)4,1.5781000000000005
mp-764709,LiFe2(BO3)2,1.2207
mp-764714,Li3Fe4(BO3)4,1.6829000000000005
mp-764722,Li3Fe8(BO3)8,1.4157000000000002
mp-764723,LiFe4(BO3)4,1.3741
mp-764738,LiFe4(BO3)4,1.7156
mp-764739,MnFeCo(PO4)3,0.526
mp-764741,Li3Fe8(BO3)8,1.3091000000000002
mp-764749,LiFe2(BO3)2,1.543
mp-765366,LiVOF2,1.6168000000000002
mp-765463,ErH3(SO4)3,5.8801
mp-765476,Y13Ho3O24,4.0041
mp-765491,Ti4(Fe2O5)3,1.3827000000000005
mp-767868,Li3NiPCO7,2.8919000000000006
mp-767869,Li3NiPCO7,2.8839
mp-767872,Li3V4(PO4)6,0.8201
mp-767873,V9Sb7O32,0.6117999999999997
mp-767879,Li3VPCO7,2.5534
mp-767880,Li3MnPCO7,3.4721
mp-767881,Li3MnPCO7,3.4172
mp-767888,Li3FePCO7,3.5789
mp-767891,Li2Si4NiO10,3.9366
mp-767894,Li3VPCO7,2.5852000000000004
mp-767895,Li3FePCO7,3.7616
mp-767903,Li3VPCO7,2.4336
mp-767906,LiMn2(PO4)2,0.2898999999999998
mp-767910,Li3MnPCO7,3.5184
mp-767911,Li3CoPCO7,2.2969999999999997
mp-767912,Li3CoPCO7,2.3451
mp-767920,Li3NiPCO7,2.9358000000000004
mp-767928,Li3CoPCO7,2.2665
mp-767958,NaMnPCO7,0.8903000000000001
mp-768417,LaAlO3,4.276999999999999
mp-768427,Ba2YBr7,3.9627
mp-768457,Sb2(SO4)3,3.6256
mp-768490,Bi2(SO4)3,4.1958
mp-768734,Sr2CaI6,3.5508
mp-768735,Ba2SrI6,3.3889
mp-768786,BaYI5,2.6641999999999992
mp-768877,Sn2Ge2O7,1.7482000000000002
mp-768878,CuReO4,0.9999999999999998
mp-768972,Ba3Y2Cl12,4.5853
mp-768973,Ba2YCl7,4.5625
mp-768983,Ba2YCl7,4.6338
mp-769046,Si2Sn2O7,2.5534
mp-769073,Na2LiTi3Al(PO4)6,2.3310000000000004
mp-769144,SnGeO3,2.0427000000000004
mp-771301,Li24Ti5Cr7O36,1.1906
mp-771302,Li24Ti5Cr7O36,1.1976
mp-771830,Sr2YI7,2.9672
mp-771918,Li2MnPO4F,3.5992999999999995
mp-772524,LiTi2(PO4)3,2.7608
mp-774399,LiMnF3,3.4213
mp-774409,V3Fe2CuO12,0.3914
mp-775997,V3P2O11,1.3065999999999998
mp-776110,SiSnO3,2.5265999999999997
mp-776212,Hf2N2O,2.0726
mp-776213,Hf2N2O,2.0318
mp-776214,Hf2N2O,2.0381
mp-776225,Hf2N2O,1.9416
mp-776226,Hf2N2O,2.0254000000000003
mp-776229,Ti2N2O,1.0034
mp-776246,Zr2N2O,1.5631000000000004
mp-776253,Li5SbS4,1.6083
mp-776259,Hf2N2O,2.0534
mp-776260,Zr2N2O,1.6504
mp-776278,Ti2N2O,0.9256000000000002
mp-776281,Zr2N2O,1.5861
mp-776314,Zr2N2O,1.6107
mp-776315,Zr2N2O,1.6814999999999998
mp-776334,Ti2N2O,0.9614000000000004