task_id,pretty_formula,band_gap
mp-779846,HoTa3O9,2.6798
mp-779858,Sm3NbO7,2.7755
mp-779893,DyP5O14,5.4353
mp-780006,Rb2MgH12(SeO7)2,4.1484
mp-780010,Ba2GeO4,3.7083
mp-780135,Li2Mn3(BO3)3,0.06549999999999989
mp-780143,LiFeOF2,1.9024
mp-780185,Mn6O7F5,0.05180000000000007
mp-780199,Li5Mn6(BO3)6,0.05469999999999997
mp-780220,Na5CuO4,0.058300000000000025
mp-780265,Sm3B5O12,3.8775
mp-780323,V3OF11,2.1964
mp-780337,LiCr4(PO4)3,1.0675
mp-780342,Gd2Zr2O7,3.1543
mp-780395,Cd(BO2)2,2.9010000000000002
mp-780398,Al2(SeO4)3,2.6467
mp-780406,Lu4Al2O9,4.1419
mp-780421,LaAlO3,4.270499999999998
mp-780422,LaAlO3,4.2508
mp-780425,Tm(HO)3,4.3017
mp-780428,Na4Bi2O5,2.6313
mp-780524,LiMn3(BO3)3,0.007699999999999819
mp-780548,Li3Mn3(PO4)4,1.1330999999999998
mp-780554,LiFeP2HO7,3.8876
mp-780570,Ti(SO4)2,2.2189
mp-780577,Fe5O3F7,1.2357000000000002
mp-780583,Li2MnFe(BO3)2,3.0729999999999995
mp-780584,LiMnP2HO7,4.019400000000001
mp-780887,LiMn2(BO3)2,0.3164
mp-780911,Li2Mn(PO3)4,4.3697
mp-780938,Li4MnFe3(BO3)4,3.1442
mp-867996,Rb2U5(PO7)4,0.015000000000000013
mp-868004,LiNi2P3O10,3.6768
mp-977371,PW4Cl11,0.5707
mp-9780,RbHfAgTe3,0.3206000000000002
mp-997499,TbTa3O9,2.3441
mp-997536,Li3V2(PO4)3,1.8251
mp-998713,TlInCl3,1.5597
mp-998778,RbSnBr3,2.2976
mvc-10914,CrP2O7,0.19609999999999994
mvc-10979,CaCu2(GeO3)4,0.11820000000000007
mvc-5061,Zn2FeWO6,2.4586
mvc-5074,MgV2O4,1.5331
mvc-5089,ZnCr2O4,0.6858999999999997
mvc-5100,Zn2CrWO6,1.9383
mvc-5111,MgSi2NiO6,4.4533000000000005
mvc-5116,MgMn(SiO3)2,3.3188
mvc-5119,MgCr(SiO3)2,2.1949
mvc-5121,Mg(BiO2)2,1.5534
mvc-5127,VZn(SiO3)2,1.5693
mvc-5130,CaSi2WO6,1.4276999999999995
mvc-5133,V2ZnO4,1.1690000000000005
mvc-5135,ZnFe(SiO3)2,2.9256999999999995
mvc-5136,ZnCr(SiO3)2,1.8339000000000003
mvc-5137,ZnCo(SiO3)2,2.9274
mvc-5138,ZnSi2NiO6,3.9595
mvc-5140,MgSi2WO6,0.9312999999999994
mvc-5180,CaCrO2,0.8853999999999997
mvc-5187,Ca(BiO2)2,1.9661000000000004
mvc-5203,Mg(CoO2)2,0.7330000000000001
mvc-5217,Ca(CoO2)2,0.5387
mvc-5221,Mg(SnO2)2,1.3004999999999995
mvc-5260,V2ZnO4,1.3186
mvc-5268,SbAsO5,0.9217
mvc-5278,MgCr2O4,0.8443000000000005
mvc-5285,CaCr2O4,0.9703
mvc-5313,Zn(SnO2)2,1.0289
mvc-5316,SnO2,1.0477999999999996
mvc-5322,SnP2O7,2.3912000000000004
mvc-5335,ZnCr2O4,0.7243999999999997
mvc-5342,MgV2O4,1.5459000000000005
mvc-5346,TiP2O7,2.2794
mvc-5354,Mg(CoO2)2,0.7321
mvc-5359,Ca(SnO2)2,1.5864000000000005
mvc-5367,MgTiP2O7,0.22970000000000024
mvc-5378,Zn(CoO2)2,0.2190000000000003
mvc-5479,CaSnP2O7,3.6361
mvc-5496,MgCuP2O7,0.5116999999999998
mvc-5503,Ca(CoO2)2,0.8959000000000001
mvc-5546,MgSnP2O7,3.7165
mvc-5547,ZnCuP2O7,0.5194999999999999
mvc-5548,VO2,0.8606000000000003
mvc-5556,VZnP2O7,1.2790000000000001
mvc-5570,MgVP2O7,2.5961
mvc-5579,Zn(FeO2)2,1.1384
mvc-5586,MgCoP2O7,2.9546
mvc-5592,P2WO7,2.4811
mvc-5605,MgMnP2O7,3.660800000000001
mvc-5610,ZnSnP2O7,3.4921
mvc-5625,ZnP2WO7,0.0567000000000002
mvc-5639,ZnCoP2O7,2.8831
mvc-5640,MnZnP2O7,2.6833000000000005
mvc-5642,MgNiP2O7,3.9257
mvc-5699,MgCrP2O7,3.2049000000000003
mvc-5701,ZnNiP2O7,3.6686
mvc-5706,ZnSnAsO5,1.4621999999999995
mvc-5718,ZnFeP2O7,2.9624
mvc-5721,MgFeP2O7,3.9277
mvc-5724,ZnCrP2O7,2.3767
mvc-5727,CaCrP2O7,2.9492000000000003
mvc-5749,CaV2O4,1.3217000000000003
mvc-5911,CaCr2O4,0.8956000000000004
mvc-5918,MgP2WO7,2.0226000000000006
mvc-5944,Zn3Si4(WO7)2,1.9788
mvc-5978,Mg(WO2)2,1.1246999999999998
mvc-6023,Zn3Cu3(AsO4)4,0.5132999999999996
mvc-6226,Zn3Sn3(AsO4)4,1.9742
mvc-6278,Zn(MoO2)2,1.1181
mvc-6352,Ti3Zn3(AsO4)4,0.20209999999999967
mp-1018100,AlSb,0.9179000000000004
mp-1020609,Zn2SiO4,2.5428
mp-1029580,Sr4ZrN4,0.8592
mp-1029652,Y3Si6N11,3.0474999999999994
mp-1037750,YMg30CoO32,1.2428000000000008
mp-1046782,Zn2Sb2O5,1.7761
mp-1079788,Sr4SO3,2.6687000000000003
mp-1094031,VO2,0.7851999999999997
mp-1120768,CsPbI3,1.6479
mp-1120798,TiZnSnO4,2.6725000000000003
mp-13335,Cd(BO2)2,3.3431
mp-17059,K3Nb3Si2O13,2.2255000000000003
mp-17395,TmCu(BO2)5,0.7742999999999998
mp-18385,Lu2Si2O7,5.1991999999999985
mp-18742,Sr2CaWO6,3.2729
mp-21218,La(GePt)2,0.021399999999999864
mp-24973,FePO4,2.5674
mp-27322,Nb2Te3O11,2.5655
mp-27462,AlPS4,2.6141
mp-28242,Tl6SCl4,1.8016
mp-29162,NaNb10O18,0.13569999999999993
mp-30002,Sc(IO3)3,3.8452
mp-32343,Ni(PO3)4,0.4399
mp-34234,Al2NiO4,3.0653
mp-510013,Pr3MoO7,0.015800000000000036
mp-540000,CoO2,0.3111999999999999
mp-540456,LiCr(PO3)3,2.9745000000000004
mp-541032,Te7As5I,0.3023999999999996
mp-554029,NaMg4V3O12,3.3216
mp-554390,SrAl2SiN2O3,3.7236
mp-556363,ZnS,2.0280000000000005
mp-556478,SrH2(CO2)2,4.6652
mp-556549,Bi2O3,2.2745
mp-556605,ZrO2,3.6907
mp-557082,H2O,5.4788
mp-557351,Bi(BO2)3,3.4257
mp-558387,TeOF2,4.189
mp-559053,NaY(SeO3)2,4.1636
mp-559208,SrTiSi2O7,3.6068
mp-565519,V2Cu5(HO3)4,0.1921000000000004
mp-5679,CdSO4,3.0417
mp-585418,Fe(PO3)4,0.008599999999999941
mp-600003,SiO2,5.4596
mp-6181,NaNb(CuS2)2,1.7138000000000002
mp-619461,WO3,1.3694000000000002
mp-625509,H3BrO,4.4183
mp-632787,CaAlH5,3.3102
mp-6330,RbUN3O11,2.3987
mp-643066,ZnH2SO5,4.2653
mp-6566,NaZnAsO4,2.7862
mp-667286,Re6Te7Se8,0.9469
mp-667344,Rb3Nb5P2O19,2.8349
mp-667349,Sr3U11O36,1.7103000000000002
mp-667389,Os6C17SO17,1.615
mp-667448,SiO2,0.9566
mp-669473,Cs3Sb2Cl9,2.6322
mp-669523,USb2F15,0.1004
mp-672376,Re2Cl7O3,0.3178
mp-675194,Te21(Mo3I11)2,0.17320000000000002
mp-684503,LiSn(PO3)3,4.2063000000000015
mp-685242,Sr7Al12O25,1.1673
mp-685352,Ca2NF,1.1674000000000002
mp-685385,Tl2In3Se5,0.6105999999999998
mp-685446,BaNb8O14,0.30489999999999995
mp-685712,Na2PrO3,0.0219999999999998
mp-686026,Nb24I35Br9,0.1755
mp-693432,Ti2H2CSe4Cl16O5,0.0060999999999999934
mp-693463,NaCa3ScZn3(SiO3)8,4.2163
mp-694615,LiFePO4,3.5227000000000004
mp-697255,KMg2As2H31O23,0.2705
mp-697317,Rb2YTi(PO4)3,2.5453
mp-699145,La(Mo4O7)2,0.5988999999999995
mp-703,Pu5Rh4,0.003200000000001424
mp-703273,KBaLiZnF6,4.9936
mp-735565,Sr11LaFe6(MoO6)6,0.6924000000000001
mp-735600,SrCo2H2(SeO3)4,2.6006
mp-738654,UH16C4(NO3)4,1.9701
mp-743547,Zn(FeO2)2,0.040699999999999736
mp-743603,Li3Ti3Fe(PO4)6,2.4315
mp-743612,NiB6(H8O9)2,4.9323
mp-743659,Sr3La9Mn11NiO36,0.020500000000000185
mp-743810,CsVZn(PO3)6,0.00439999999999996
mp-753600,Bi3O4F,2.1084
mp-754496,Li5SbS,0.5486999999999997
mp-757205,Y2Th5O13,2.7174
mp-759251,LiSb(PO3)4,4.1585
mp-759278,Li2Cu(PO3)4,0.09329999999999994
mp-759344,P3H30N7O12,4.7385
mp-759345,LiTi(PO3)4,0.13959999999999972
mp-759365,LiCuPO4,0.018200000000000216
mp-759384,LiSn2(PO4)3,3.5022
mp-759390,Li3Bi2(PO4)3,3.0811
mp-759869,LiBi(PO3)4,3.992
mp-760098,Y5U2O12,0.08979999999999944
mp-760190,Cu2OF2,0.0484
mp-763061,LiNiPO4,3.1413
mp-763323,LiMn2(BO3)2,0.7656999999999998
mp-763432,Li2VO2F,0.15229999999999988
mp-764152,Li2NiP2O7,3.4846000000000004
mp-764153,Li2CrP2O7,2.3913
mp-764171,NaV2(PO4)3,1.3079
mp-764176,Mn12O7F17,0.2964
mp-764289,Li2VCr(P2O7)2,2.0869
mp-764480,LiMnV(P2O7)2,1.2365
mp-764481,LiMnV(P2O7)2,1.2397
mp-764488,LiMnV(P2O7)2,1.2975000000000003
mp-764585,Li6MnV3(PO4)6,0.059200000000000134
mp-765290,Li4V3P8O29,0.8027
mp-765330,Li6V3P8O29,1.1305999999999998
mp-765348,V5F11,0.6265000000000001
mp-765369,Li7V3P8O29,1.0432
mp-765372,Li5V3P8O29,1.2696999999999998
mp-765378,LiMnVP2(HO5)2,0.8283
mp-765682,Li3V3CrO8,0.1876000000000002
mp-766374,LiSiBiO4,3.3375000000000004
mp-766717,Li3V3P8O29,0.9591
mp-766718,Li3V3P8O29,0.9185
mp-766745,Li3V3P8O29,0.8773000000000001
mp-766934,Li5V3P8O29,0.7607999999999999
mp-767317,Li4Mn(OF)2,1.3372000000000002
mp-767447,LiVSiO4,2.2633000000000005
mp-769348,MgSnO3,2.0089999999999995
mp-770741,Mg3(AsO4)2,2.6418000000000004
mp-772089,SrLaCl5,3.6632000000000007
mp-772114,BaLaI5,2.4932
mp-772116,LaMgI5,2.6293
mp-772149,Sm2Ge2O7,3.6808
mp-772517,Li7Fe4(PO4)6,1.1516000000000002
mp-773384,Li6V3P8O29,1.4447
mp-773627,Li2Fe3BiO8,0.40080000000000027
mp-773673,LiFePO4,3.6118
mp-773684,Li6V3P8O29,1.3153
mp-773692,LiFePO4,3.5447
mp-773727,Li3Mn2(PO4)3,0.8770000000000002
mp-773799,LiCrPO4,1.9035
mp-773893,SnSb2H24C8(SCl)2,2.9968
mp-773894,CaB2(H2O3)2,5.3586
mp-773930,V3(WO6)2,0.1794
mp-773942,Li3Fe2(PO4)3,2.2271
mp-773992,LiCrPO4,0.9945
mp-774039,LiMn(SO4)2,0.4869000000000001
mp-774042,Li8Mn5Fe3(BO3)8,3.0582000000000003
mp-774170,NaLi5Fe2P2(CO7)2,3.8845
mp-775373,Li4V3P8O29,0.8914000000000001
mp-775381,Li5V3P8O29,0.8962999999999999
mp-775382,Li5V3P8O29,0.6155999999999999
mp-775383,Li4V3P8O29,1.1248
mp-775384,Li5V3P8O29,1.1005
mp-775385,Li5V3P8O29,0.5802999999999999
mp-775505,Li5V3P8O29,0.9646
mp-775563,Li5Mn5(SeO3)8,0.7279
mp-776763,Ti3(WO6)2,2.5978
mp-776795,BaYBr5,3.8401
mp-776798,Li2MnVP2(HO5)2,0.5434999999999999
mp-777304,Li2V3CoO8,0.8416000000000001
mp-778410,Li3Fe3OF7,2.0228
mp-778750,V6O7F5,0.8096000000000001
mp-779370,V4(OF3)3,1.3814
mp-779960,V4O7F5,1.4035000000000002
mp-781008,Li2MnV(P2O7)2,0.4129999999999998
mp-781062,LiMn2(BO3)2,0.20720000000000005
mp-781079,Li3Mn4(BO3)4,0.2981999999999998
mp-781497,LiMn2(BO3)2,0.35740000000000016
mp-781598,Li3Mn4(BO3)4,0.17789999999999995
mp-781608,LiMn2(BO3)2,0.4071
mp-781610,Li3Mn4(BO3)4,0.11199999999999988
mp-781616,LiMn2(BO3)2,0.2138
mp-781619,Li3Mn4(BO3)4,0.4289999999999998
mp-781623,LiMn2(BO3)2,0.10670000000000003
mp-781673,LiMn2(BO3)2,0.05010000000000003
mp-781707,La4Al2O9,4.490500000000001
mp-781757,TaNbO5,2.487
mp-781803,Li3Ti2(PO4)3,0.010600000000000165
mp-781828,NiH18(I5N3)2,0.7234
mp-849996,Li3Mn2(P2O7)2,0.1108
mp-851002,Li4Mn2(PO4)3,0.005099999999999882
mp-851059,Li4V3P8O29,1.0821999999999998
mp-851070,Li3V3P8O29,1.1946
mp-851090,SrLaCl5,3.3844
mp-851102,LiTa3O8,2.2872000000000003
mp-851269,V4Cr2O13,2.3222
mp-853178,Li5V3P8O29,1.1904
mp-9145,Rb2SnSe3,1.6655
mp-9209,In2(SO4)3,3.6946
mp-9359,ZnSi(AgO2)2,0.6068
mp-989601,LaWN3,0.9810999999999996
mvc-14333,VZnF5,2.363
mvc-4085,Y2Cu3(SiO4)3,0.059499999999999886
mvc-4941,ZnW2O5,1.6516
mvc-5000,CrWO6,0.4032
mvc-5669,Ca(CuO2)2,0.15200000000000016
mp-1006588,Zn3In2O6,1.2096
mp-1006617,ZnP2NO9,0.1533000000000001
mp-1008228,SnPOF7,4.6387
mp-1012103,V2NiO6,2.6287000000000003
mp-1012678,NaMo3P3O13,1.5094999999999996
mp-1012791,NaV3P3O13,1.4266
mp-1013565,Na2CoP2O7,2.4565
mp-1013577,Na2CoP2O7,2.9608
mp-1013599,Na2CoP2O7,2.3951
mp-1013843,NaMo2P2O9,1.7517000000000005
mp-1016070,CrN2,0.0858000000000001
mp-1016078,CrN2,0.3777000000000008
mp-1016213,Sn3H8C2NO7,0.07650000000000001
mp-1020664,Rb2Li5(BO2)7,4.4245
mp-1021330,Rb2Ge(S2O7)3,3.8051
mp-1040455,H4PbI3N,2.1129
mp-1042864,Ti(GeO3)2,3.2401
mp-1048055,Sr2Ti2GaO7,0.1495000000000002
mp-1173991,Li3Mn2O5,0.4726000000000004
mp-1177869,Li2V3CoO8,1.5288
mp-1191693,YCO4,0.7335000000000002
mp-1197507,SrMo4H4O15,2.7437
mp-1202471,Rb2Mo(CO4)2,0.8634999999999999
mp-1210188,Nd2Ti3(BiO6)2,2.2754000000000003
mp-1219249,Si3P3Ir,1.2037000000000004
mp-1219720,PtSeS,0.4970999999999997
mp-600006,SiO2,5.5346
mp-600031,SiO2,5.6567
mp-600076,SiO2,5.514100000000001
mp-600091,SiO2,5.697
mp-600096,SiO2,6.1453000000000015
mp-600237,Ag(CO)2,0.7095
mp-600519,NiH14C3NCl3O2,3.4911
mp-601228,NaH2CSO4F3,3.1189
mp-601265,SrH6(CO3)2,2.7834
mp-601287,CuH2(CO2)2,0.245
mp-603643,Li2Fe3(P2O7)2,3.841
mp-603930,MgSiO3,4.565199999999999
mp-604420,LiAlSiH2O5,4.1764
mp-604430,LiAlSiH2O5,4.6638
mp-605350,RbPbF3,4.294499999999998
mp-607479,RbEuSiS4,0.23540000000000005
mp-608031,NaNpCO5,0.058300000000000025
mp-608354,OsC3IO3,2.2723
mp-608468,ZnS,1.9806
mp-608595,NaBrO3,0.07530000000000002
mp-609510,Sb2Mo10O31,0.29159999999999986
mp-612520,UI4,0.0665
mp-612946,KTeOF3,3.9955
mp-616541,Ru(CO)4,1.9665
mp-619747,Na3GdBr6,2.1857
mp-753610,BaCaI4,3.5645
mp-753611,PCl3O,4.5483
mp-753623,Li2Cu4S3,0.6691000000000003
mp-753627,LiTiP2O7,0.10190000000000056
mp-753650,BaLaCl5,3.4182
mp-755104,Ba2YCl7,3.9884
mp-755107,Dy2TiO5,2.9314
mp-755115,CuReO4,0.4367999999999999
mp-755184,Sm2Se2O,1.6796999999999995
mp-755198,Cs3LaO3,1.7439
mp-755206,Ca2Ti6N2O11,1.9883
mp-755210,Y4Cu2O7,1.5678999999999998
mp-755251,Gd2HfO5,3.2044000000000006
mp-755277,Tb3SbO7,2.7565000000000004
mp-755314,Hf2N2O,2.0711000000000004
mp-755353,Sr2Ti6N2O11,1.7830000000000004
mp-755362,Sm2Se2O,2.0939
mp-755366,LiCu2PO4,0.4894000000000007
mp-755368,Zr2N2O,1.8150000000000004
mp-755370,BaNb3NO7,1.2927
mp-755373,Lu2GeO5,3.494800000000001
mp-762166,LiNiPO4,3.3519
mp-762170,Li2NiP2O7,4.3009
mp-764463,Li3Co2Si3O10,0.7240999999999997
mp-764468,Li2Mn2F7,0.11670000000000005
mp-764471,V4O5F7,1.5538
mp-764476,Li4Fe7(OF7)2,2.5175
mp-764479,VOF2,1.1419
mp-764491,LiFe2(BO3)2,1.1301
mp-764494,Li2VFeP2(O4F)2,1.6052
mp-764752,LiV2OF7,1.8488
mp-764754,LiV3O5F3,1.1471999999999998
mp-764759,Li6Mn5O12,0.3382999999999998
mp-764761,Li2VOF4,2.0956
mp-764764,Li7Mn5O12,0.6299000000000001
mp-764766,Li2VOF4,0.8844
mp-764772,LiVO2,1.2487
mp-764775,Li7VO5F,1.9844
mp-764781,Li3(CoO2)4,0.8104999999999998
mp-764784,LiFeSiO4,3.0096000000000003
mp-764785,Li3V2(O2F)2,0.3517999999999999
mp-764787,LiVOF3,1.8347
mp-764791,Li2Mn(SiO3)2,3.4471
mp-764793,Li2Mn4OF8,2.1718
mp-764794,Li2Mn2F7,0.5693
mp-764795,Li2Fe4OF8,2.5323
mp-764812,VOF2,1.3564
mp-764821,V6O11F,0.5169000000000001
mp-764825,MnOF,0.07509999999999993
mp-764834,Na2FeO2,0.6002999999999998
mp-764835,LiV3O5F3,0.4202
mp-764840,V2(OF)3,0.1143
mp-764842,LiVOF3,2.1513
mp-764844,Li7V4O11F,1.3426
mp-764845,LiVOF3,1.8467
mp-764846,Li2MnF4,3.8456
mp-764861,Li2Mn2F7,0.4584
mp-764866,FeOF,0.059299999999999915
mp-764869,Li3MnFeCo(PO4)3,1.3838999999999997
mp-764872,Li5Fe7O3F13,2.8756
mp-769283,Sr4Ta2O9,4.1571
mp-769289,Y2Hg2O5,0.659
mp-769294,Rb8SnO6,1.071
mp-769301,Ca4Ta2O9,4.4946
mp-769310,SiBi2O5,2.6223
mp-769322,MgSO3,4.8986
mp-769329,RbLi2B3Sb2O9,2.6208
mp-769347,MgSO3,5.0249000000000015
mp-769366,Nd3SbO7,2.5869000000000004
mp-769381,Ca3Ta2O8,4.5215000000000005
mp-769390,Ca3Ta2O8,4.2097
mp-769404,YSeO3,1.8121
mp-769422,V3CrNi2(PO4)6,0.12189999999999968
mp-769425,YFeGe2O7,2.5831
mp-769426,LiCo2(PO4)2,0.3402000000000001
mp-769427,Li5Fe6(BO3)6,1.6005000000000005
mp-769438,ZrFe(PO4)3,0.014899999999999997
mp-769456,Na5Fe2P2(CO7)2,1.084
mp-769488,Na5Fe2P2(CO7)2,1.3887999999999998
mp-769494,Na5Fe2P2(CO7)2,0.956
mp-769517,NaMnPCO7,0.6353
mp-769526,Li7MgNi7O16,0.10109999999999976
mp-769527,Li2MgCo13O28,1.0534
mp-769532,Na4V2C4SO16,0.444
mp-769533,LiMn(PO3)4,1.2959999999999998
mp-775449,Li2Mn(SiO3)2,3.0724000000000005
mp-775457,Cr(PO3)2,3.025
mp-775461,Li2V3FeO8,1.1613000000000002
mp-775464,V3Fe3(TeO8)2,1.5605
mp-775473,Na2NiPCO7,0.000199999999999978
mp-775492,Li2MnV3O8,0.9618000000000002
mp-775493,Li2Fe3WO8,0.9396
mp-775494,V3Co(PO4)4,0.8578000000000001
mp-775518,Li5Ti6FeO16,2.1950000000000003
mp-775523,Li3Fe2(PO4)3,2.2652
mp-775524,Li2V3FeO8,1.2463999999999995
mp-775526,NaMnPCO7,0.9049
mp-775536,LiV4CuO12,0.3503000000000001
mp-775543,SnPHO5,3.407
mp-775544,Ni3Sb(PO4)4,0.0010999999999996568
mp-775572,Na3Li5Mn5O9,0.16880000000000006
mp-775574,Na2MnO2,0.5748999999999997
mp-775624,Na5Li3V8O24,3.1045000000000003
mp-775647,Li2Mn3SnO8,0.6080999999999999
mp-780237,Li3Cu3(PO4)2,0.7711000000000006
mp-780282,Cd(BO2)2,2.7302
mp-780288,Li3Si2(NiO4)2,1.0224
mp-780294,Li3Mn2Fe(BO3)3,2.6411
mp-780297,Li3Mn2Fe(BO3)3,2.6528
mp-780301,Mn6OF11,0.1977
mp-780314,Li3V2P4(HO8)2,0.9941999999999998
mp-780320,LiMn3(BO3)3,0.5244
mp-780321,Li3Cu3(PO4)2,0.7003000000000004
mp-780326,Ni(IO3)2,3.1389
mp-780327,LiMn3(BO3)3,0.025600000000000067
mp-780392,Li5Cu(PO4)2,1.8462
mp-780396,SrCa2I6,3.711
mp-780439,LiCr(PO3)4,3.0185
mp-780441,Li24Mn7Cr5O36,1.004
mp-780470,Li8Mn3Fe5(BO3)8,3.1448
mp-780473,Mn6OF11,0.0968
mp-780474,Li3MnFe2(BO3)3,2.8421
mp-780477,Li3MnV(PO4)3,0.3342999999999998
mp-780483,Li2MnFe(BO3)2,2.6394
mp-780487,LiMnPH2O5,3.3626
mp-780489,Fe6O7F5,0.23629999999999995
mp-780491,Fe4O3F5,0.9574000000000004
mp-780497,Li2MnFe(BO3)2,2.6796
mp-780499,Li2MnFe(BO3)2,3.0424
mp-780503,Li4Cr7(PO4)6,1.6815000000000002
mp-780510,LiMn3(BO3)3,0.2894999999999999
mp-780512,Li2Mn3(BO3)3,0.06259999999999999
mp-780519,Fe3(OF2)2,1.1625
mp-780525,Mn6OF11,0.4401000000000001
mp-780532,Li2FeO2F,2.3033
mp-780538,V6O11F,0.5145
mp-780543,Li2MnCr3O8,0.5286
mp-972439,Zn3(PO4)2,2.9952000000000005
mp-972600,UCd(PbO3)2,1.6558000000000002
mp-974586,Rb2MgH4,3.2815
mp-974606,ReH6CN3O4,3.6454
mp-974667,Rb2H2C2O5,3.4117
mp-974724,ReClO3,3.5777
mp-976402,NaZnAs(H2O3)2,3.0309
mp-976868,NiH2SeO5,2.0722
mp-997046,AuClO2,0.8865000000000001
mp-997109,PbAuO2,0.3727
mp-997569,AlP,2.1634
mp-997571,H6CIN,3.9223
mp-998157,RbSnBr3,0.6151000000000002
mp-998176,RbPbBr3,1.7624
mp-998198,RbCaBr3,4.072
mp-998297,CsSrBr3,4.1673
mp-998299,RbSeBr3,1.2364
mp-998325,RbCaI3,3.4331
mp-998333,CsCaI3,3.7132
mp-998350,BaZrSe3,0.2012999999999998
mp-998398,InSnBr3,1.1056
mp-998413,CsSeBr3,1.1982
mp-998419,BaHfS3,0.8664999999999998
mp-998433,CsSrBr3,4.4089
mp-998535,InPbCl3,2.9028
mp-998592,RbCaI3,3.5985
mp-998603,RbPbBr3,2.8211
mp-998604,RbPbCl3,3.263
mp-1025502,TiCuF6,0.10159999999999993
mp-2878,Li3PO4,5.7279
mp-2882,Y2Cu2O5,0.33110000000000017
mp-3032,RbBF4,7.737
mp-3033,RbTaO3,3.5412
mp-3062,Sm4S3N2,1.2922999999999996
mp-3073,Sm2Te4O11,3.2854
mp-3075,TlGeS2,1.7578999999999998
mp-3120,Tm2Cu2O5,0.30810000000000004
mp-3123,PPdSe,0.9677000000000002
mp-3180,Ta2Te2O9,3.1919
mp-3193,Na2Si2O5,4.4533
mp-3245,SnP7Au3,0.02810000000000024
mp-3718,ThTeO,0.2417999999999996
mp-3719,Rb3NbS4,2.4442
mp-3727,Nd3NbO7,2.6460000000000004
mp-3735,GdPO4,2.8647000000000005
mp-3739,NdCuSe2,0.7506000000000004
mp-3788,SrAl4O7,3.7468
mp-3789,Zn2SiO4,2.7537000000000003
mp-3790,SrNb8O14,0.2584
mp-3831,SmPO4,5.7418000000000005
mp-3855,Na2BeF4,6.7369
mp-3859,Ca2B2O5,4.7391
mp-5081,SmCuS2,1.1156000000000006
mp-5121,Nd2Te4O11,3.2832000000000003
mp-5193,SrZrS3,1.1848000000000003
mp-5224,BaSi2O5,4.8574
mp-5226,K2SeO4,3.5912
mp-5285,SrSO4,5.9094
mp-5606,AlTlF4,4.2492
mp-5704,Tl3AsS4,1.6893000000000002
mp-5706,SnPSe3,1.3451000000000004
mp-5803,NbPO5,2.1631
mp-5905,Y2BeO4,4.1009
mp-5909,Zn2GeO4,1.9752
mp-5913,Pr2Si2O7,5.1705
mp-5915,TlNO3,2.7867
mp-600037,SiO2,5.4426
mp-622093,K3Yb(SO4)3,0.8223
mp-622624,Rb2Cr2As2O9,2.1846
mp-625175,H3ClO5,5.4045
mp-625285,VHO3,2.086
mp-625314,FeHO2,1.7038
mp-625530,H2W2O7,1.588
mp-625723,MoH4O5,2.3239
mp-626172,H4SO5,5.351699999999999
mp-626361,Pr(HO)3,3.8468
mp-626542,H3NO,0.2866
mp-626703,CrHO2,2.4372000000000003
mp-626725,Ba(HO)2,4.3643
mp-626827,Fe4H14O13,1.8595
mp-626872,V3(HO4)2,0.7339
mp-626913,V3(HO4)2,1.467
mp-627023,Ba(HO)2,4.4399000000000015
mp-628583,NaC2N3,4.5208
mp-631247,LiVTeO5,3.0595
mp-632485,Bi2Te2S,0.04590000000000005
mp-632539,TlInS2,0.8613
mp-648573,ZnAg2C4(SN)4,3.0618
mp-649601,RuXeF11,0.30500000000000016
mp-673698,Cu2HgI4,0.4197
mp-675742,PNO,0.12819999999999965
mp-680092,CdI2,2.3471
mp-680163,CdI2,2.3317
mp-680196,CdI2,2.3569
mp-694931,Sr2CoWO6,1.7524000000000002
mp-699382,Fe2(MoO4)3,0.9112000000000002
mp-699393,YbSi6H54(C6N)3,0.14700000000000024
mp-705295,LiNiP2O7,0.008000000000000007
mp-705300,Cr(PO3)5,0.2176
mp-705332,LiCoP2O7,0.8663000000000001
mp-705358,Mo2P3O13,0.0971
mp-705395,Fe3P4O15,0.04079999999999999
mp-707981,Y4H9NO13,3.3405
mp-708955,PH8C2NO4,5.3301
mp-761951,LiCoPO4,0.0618000000000003
mp-762014,LiCoPO4,1.8232
mp-762180,LiV2(PO4)3,1.2198000000000002
mp-762182,Li3Fe2(CO3)4,1.2538
mp-762184,LiMn2(CO4)2,0.4229000000000001
mp-762191,LiV(PO3)4,2.5338000000000003
mp-768942,Ho2(SeO3)3,3.4041
mp-769038,Li3NbS4,2.149
mp-769049,BaLaCl5,3.785
mp-769059,Li3NbS4,2.0684
mp-778764,Li24Mn7Cr5O36,1.037
mp-778795,Ta2Zn4O9,2.9448000000000003
mp-778886,Fe10O11F9,0.2794000000000001
mp-778889,Li24Ti11CrO36,1.4958999999999998
mp-778893,Li32Mn3Cr13O48,0.9811
mp-778912,Gd2(WO4)3,3.3302
mp-778917,Li2CoP2O7,3.1084000000000005
mp-778968,Rb3DyO3,2.1247
mp-778973,Zn(NO3)2,3.3382
mp-853237,Li4Ni2(PO4)3,0.005199999999999982
mp-853253,LiMn4(PO4)3,1.5830000000000006
mp-853266,Li3Fe9O5F11,1.1821000000000002
mp-853273,LiV2OF5,1.6439
mp-8547,PdPtF6,0.7715000000000001
mp-8615,NbBO4,2.4711
mp-861503,Pr3Sb4Au3,0.7561999999999998
mp-861513,Rb5SiHO5,2.6294000000000004
mp-861962,BaSb2F12,4.4413
mp-862678,Sb2H8Pt(OF3)4,1.9862
mp-975140,RbZn4P3,0.2037
mp-985610,NaAg(CO2)2,1.6802
mvc-13533,AlFeO3,0.7847
mvc-13536,CrF4,1.5511
mvc-13592,YV3O9,1.5385000000000002
mvc-13677,MoO2,1.0932
mvc-13694,La2MoO6,2.7963999999999998
mvc-13785,CaNiO2,2.4575
mvc-13793,CaCrO2,0.8201
mvc-13836,TaF5,3.4232000000000005
mvc-13886,TiAlF5,0.18579999999999952
mvc-13958,SbF5,0.6609
mvc-13972,AlBiO3,0.7367999999999997