task_id,pretty_formula,band_gap
mp-779783,Li4MnFe3(BO3)4,3.2005
mp-779815,LiV4OF11,0.7389
mp-779822,Li3V4(OF3)3,1.1431000000000002
mp-779832,Li8Mn5Fe3(BO3)8,3.0375
mp-779833,Hf2N2O,1.9989
mp-779837,Hf2N2O,2.0789
mp-779863,Hf2N2O,2.0569999999999995
mp-779864,Hf2N2O,2.0079
mp-779866,Li8MnFe7(BO3)8,3.1654
mp-779902,Li3V2P4(HO8)2,0.8773999999999997
mp-779938,LiV2P4(HO8)2,1.0822999999999998
mp-779973,Hf2N2O,2.0806999999999998
mp-779974,Hf2N2O,2.1572000000000005
mp-779975,Hf2N2O,2.0039
mp-779979,Hf2N2O,2.0202
mp-779980,Hf2N2O,2.0281
mp-779982,Hf2N2O,1.9263000000000003
mp-862832,PaTlO3,2.6419
mp-862901,PmF3,4.9775
mp-10733,Sm2O3,3.9244
mp-1078490,Sc(NF2)3,0.5725
mp-1096820,AlAgS2,1.5576999999999996
mp-30067,Te3Pd10,0.04709999999999948
mp-504781,NpI3,0.000399999999999956
mp-552028,Nd2Ti2S2O5,0.8252999999999999
mp-556564,SiO2,0.30200000000000005
mp-600089,CsPbBr3,2.4845
mp-605824,Cs4CO4,1.7
mp-617,PtO2,1.5987
mp-625628,GaHO2,2.0642
mp-626864,U(HO2)2,1.6722999999999997
mp-628773,SnSe,0.4664999999999999
mp-632672,LiHF2,8.2933
mp-638022,Sb4Pb5S11,1.3758
mp-640740,Na12B26O45,4.9612
mp-640818,Mo9O26,0.4122000000000003
mp-643101,Rb2H6Pt,4.0644
mp-643359,Rb2Sn(H2N)6,2.5295
mp-647590,As5Pb3S10,0.13739999999999994
mp-648072,NaPO3,4.7362
mp-648264,Os6C17S2O17,1.8011
mp-650015,P6N7Cl9,3.8764
mp-650392,FeSiO3,2.7187
mp-650674,TeAs(Se2F3)2,1.4334
mp-650984,Ru6C17S2O17,0.9013
mp-650996,Ru7C20(SO10)2,1.069
mp-651161,TeAs(SeF3)2,1.6914
mp-652791,Re2SnC10(ClO5)2,0.3854
mp-653763,SiO2,5.5171
mp-654312,Ba2Fe2O5,1.4173
mp-662643,P2CN3Cl5,3.9851
mp-677001,SrAl7Tl5Si5O24,0.008199999999999985
mp-680133,CdI2,2.3402000000000003
mp-680306,Rb14Si10O17,1.4054
mp-680345,Tl2Br3,1.1457
mp-680377,Rb12Sn8GeO4,1.1014
mp-683970,SiO2,5.3595000000000015
mp-683981,Rb8U9O31,1.5396
mp-683995,Re3C14NO16,0.11839999999999995
mp-684454,Li3Bi3P8O29,0.3196
mp-685007,Tb5Te9,0.2134999999999998
mp-685265,Nd6MnS10,1.2959000000000005
mp-685490,Hf3Sc4O12,3.9078
mp-685513,Pr6MnS10,1.2101999999999995
mp-6977,Be3N2,3.3284
mp-706456,Te2As2SI6(OF6)2,0.11609999999999987
mp-709350,Sr5As5HO18,3.2622
mp-709885,Rb4LiH3(SO4)4,4.0899
mp-710509,VH21C7N4Cl7,1.6009
mp-752565,LiAg2F4,0.00990000000000002
mp-754526,TmBrO,4.427
mp-754825,NaTmO2,4.0764
mp-755003,LaBiO3,2.6285
mp-755716,HoHO2,4.1921
mp-755759,ZrO2,3.2124
mp-755789,Na2Be2O3,3.0523
mp-755941,Sm3TaO7,3.3894
mp-756389,Lu2TeO6,2.3933
mp-762951,Li3V3P8O29,0.6582
mp-762955,Li3V3P8O29,0.6111
mp-762960,Li3V3P8O29,1.1878
mp-762964,LiMnF3,3.2519
mp-762965,Li3V3P8O29,0.5884
mp-762966,Li3V3P8O29,1.2464000000000002
mp-762968,Li5V3P8O29,0.7694
mp-762969,Li5V3P8O29,0.7304
mp-762979,Li5V3P8O29,1.0917
mp-762984,Li5V3P8O29,0.8841
mp-763133,LiMnF3,3.3597
mp-763272,Li4V3P8O29,0.4547
mp-763347,Li2VO2F,0.3455999999999997
mp-763523,Li3V3(PO4)4,2.1547
mp-763655,LiMn3O6,0.3361000000000001
mp-763866,Li6V3P8O29,1.3717
mp-763881,Li6V3P8O29,1.2262
mp-763889,Li6V3P8O29,1.4484
mp-763894,Li3Fe3(PO4)4,1.9448000000000003
mp-763973,V4O7F5,0.9118
mp-764031,Li3V3P8O29,1.2024
mp-764032,Li3V3P8O29,1.2409
mp-764065,Li3V3P8O29,0.9825
mp-764066,Li3V3P8O29,1.2594
mp-764067,Li3V3P8O29,0.9827
mp-764068,Li3V3P8O29,0.8601000000000001
mp-764070,Li3V3P8O29,0.7778999999999999
mp-764071,Li3V3P8O29,0.7075
mp-764073,Li3V3P8O29,0.9064
mp-764076,Li3V3P8O29,1.2444
mp-764077,Li3V3P8O29,1.0102
mp-764107,Na4CoO4,1.2643
mp-764114,Li4V3P8O29,0.5292
mp-764116,Li3V3P8O29,0.8432999999999999
mp-764117,Li3V3P8O29,0.9981
mp-764118,Li3V3P8O29,0.892
mp-764119,Li3V3P8O29,0.9325
mp-764121,Li3V3P8O29,0.9831
mp-764122,Li3V3P8O29,0.6096
mp-764123,Li3V3P8O29,0.7303
mp-764129,Li9V3P8O29,1.5394
mp-764150,Li3V3P8O29,0.7461
mp-764191,Li9V3P8O29,1.4196
mp-764244,Li9V3P8O29,1.6203
mp-764263,Li3V3P8O29,1.003
mp-765495,Li4CrFe3O8,1.7114000000000005
mp-765869,CoAgO2,0.2622
mp-765906,Co2NiO6,1.1087
mp-767321,Li7(SbS)2,0.3237000000000001
mp-771640,BaSrI4,3.4688
mp-771936,Sr3YI9,2.5314
mp-771955,Sr3LaBr9,2.9573
mp-772017,Ba3La2Cl12,4.0506
mp-772032,Sr2LaI7,2.7846
mp-772063,BaLaCl5,4.2395000000000005
mp-772064,BaLaCl5,3.5974
mp-772074,Sr3LaI9,2.1769000000000003
mp-772080,BaLaI5,2.5826
mp-772140,Ba2LaI7,2.8927
mp-772158,Ba2LaI7,2.3073
mp-772186,Tm(ClO4)3,5.7725
mp-772219,BaLaI5,2.5999
mp-772279,Ti2V(PO4)3,0.07720000000000038
mp-772299,Li6V3P8O29,1.3295
mp-773140,Co3NiO8,0.3287
mp-773347,Li2MnFeO4,0.2070000000000003
mp-774088,Li2NbCr3O8,1.8766000000000005
mp-776671,Li2TiNi2O5,2.1225
mp-776672,Li2NbV3O8,0.13599999999999968
mp-779309,V4(OF3)3,1.1773
mp-779807,Fe5O3F7,1.2049
mp-780675,Li3MnV(PO4)3,0.38580000000000014
mp-781007,Li2MnH8(SO6)2,3.9353
mp-781141,Li3V3P8O29,0.9637
mp-8085,Mg3P2,1.1058
mp-850250,Mn6O7F5,0.0123000000000002
mp-865934,YbF2,6.7345000000000015
mp-8927,TaCuN2,0.4853000000000005
mvc-10873,CrO2,0.2954000000000001
mvc-12314,Y5Be6Fe3(SiO5)6,1.8256
mvc-12592,MgCr2O4,2.1137999999999995
mvc-13223,VO2,1.1606
mvc-13255,Y4V6O21,0.2957000000000001
mvc-14400,Y2Mn3O9,0.4923000000000002
mp-1003402,CaMnO2,2.1634999999999995
mp-1009733,Ca2Si,0.5549
mp-1013588,Sr3SbP,1.0247000000000002
mp-1025509,ZrZnF6,6.129
mp-1036211,BaMg14MnO16,0.9603000000000002
mp-1036771,Mg30VSnO32,1.6429
mp-1037910,Mg30MnCrO32,1.9595
mp-1039032,CaZn3,0.33020000000000005
mp-10648,YbSe,2.2566
mp-1068377,CsEuCl3,0.6267
mp-1079517,La2MnNiO6,1.1807999999999996
mp-1080625,Sr2LiReO6,1.8392
mp-1094056,Si7Ge,0.4219999999999997
mp-1097884,BeF2,6.255000000000001
mp-1099221,CsMg6BO7,0.9356
mp-1100414,VSiRh,0.3396999999999997
mp-1101257,Tm2Pt2O7,1.5666999999999995
mp-1103888,YbB12,0.12899999999999956
mp-12948,NaMgF3,6.6206999999999985
mp-13981,KPO3,4.821199999999998
mp-15599,K2Ca2(SO4)3,5.3165
mp-17090,SrTlPS4,2.0933000000000006
mp-1746,MgF2,6.7193
mp-18903,Sr2CdWO6,3.5352
mp-20928,Sb2Ru,0.008100000000000662
mp-2630,SrC2,1.6718
mp-2633,GeO2,0.7843
mp-2695,Sb2Os,0.34339999999999904
mp-3419,RbAuF4,2.5364000000000004
mp-5245,Zn(CN)2,5.9133
mp-540833,V2Co3O8,1.7409999999999999
mp-541368,Tl4V2O7,2.6066000000000003
mp-556565,KBrF4,0.8666
mp-556585,MnF2,2.7675
mp-558752,Rb2Ca2(SO4)3,5.3971
mp-559957,SrTiGeO5,2.8409000000000004
mp-560133,TlPb8Br9O4,2.983
mp-561559,Sr2CoWO6,1.6711
mp-566224,SrV4(AgO6)2,2.0861
mp-568230,TiCl3,0.027800000000000047
mp-571079,TlCl,2.5179
mp-643570,NiH2SO5,3.9322
mp-645665,RbFe(MoO4)2,2.5548
mp-697873,SnHC2O3,2.1353000000000004
mp-703253,RbFeSe2O7,2.1487
mp-7139,N2O,3.3292
mp-730190,H4NF,6.1796
mp-735547,MnP(HO)7,0.5233999999999999
mp-7487,BaO,2.7670000000000003
mp-754191,La2Ti3O9,2.0596
mp-754300,HoBiO3,2.4719
mp-754636,ErBiO3,2.4634000000000005
mp-760812,Li3CuF6,0.8733
mp-761528,LiMnPO4,3.0610000000000004
mp-761600,Zn2Fe7O12,1.1355999999999995
mp-763093,Li2Mn3F8,3.2135
mp-764286,VOF,1.9601
mp-765253,MnF4,0.7666
mp-765498,LiVOF3,2.4153
mp-767005,LiMn2O2F3,1.2784
mp-767063,Sn(PO3)2,3.5944
mp-767172,Mn2OF3,0.6323
mp-767229,Li2VSiO4,1.5185000000000004
mp-769609,Li4VCr3O8,1.5588000000000002
mp-771844,Mn3VO8,0.5214999999999999
mp-772060,Li3NbFe3O8,0.8872
mp-772345,Li4Mn3O8,1.0079
mp-773296,Mn3NiO8,0.8148
mp-775300,Na3CoO3,1.6212000000000002
mp-776475,Al2O3,5.2156
mp-776513,LiVF4,2.0563
mp-777057,LiCoPO4,2.8356000000000003
mp-779972,ZnCoO2,1.0271000000000003
mp-7844,Mg3As2,0.5453999999999999
mp-849394,Li2MnSiO4,2.9643
mp-849964,Li2V3CrO8,1.4501999999999995
mp-850015,CrO,0.34089999999999954
mp-864766,NaMgSO4F,5.6118000000000015
mp-868342,Li4Co5O12,0.01870000000000016
mp-8978,CsNbN2,1.5227999999999997
mp-963,ZrO2,2.8574
mp-971633,NaFeO2,1.8425
mp-998605,RbPbCl3,2.1964
mp-998917,K2O2,2.0834
mvc-12187,Ca(NiO2)2,0.8057000000000003
mvc-14214,ZnCrF5,2.8762
mvc-14925,FeO2,0.8703000000000001
mvc-3524,YVF5,2.7627
mp-10080,PrGeBO5,3.9977
mp-1008492,BrCl,1.8298
mp-1009639,PrN,1.5598
mp-1009820,SnC,0.6257000000000001
mp-1009828,BaSiC,0.2551999999999999
mp-1013911,Na2CoP2O7,3.0677000000000003
mp-1019323,Th2HN3,1.4164000000000003
mp-1023924,MoS2,1.6582
mp-1029275,SrZrN2,1.2165999999999997
mp-1029312,RbVN2,0.08360000000000012
mp-1029422,NbZn2N3,2.1411
mp-1029469,ZnSnN2,0.12070000000000025
mp-10341,SrGeTeO6,2.9532
mp-10426,Nb2O5,1.8522
mp-1070,CdSe,0.56
mp-10748,TaCu3S4,1.9231000000000005
mp-11661,Zr3N4,0.6807999999999996
mp-12022,HgB4O7,1.7956999999999996
mp-13654,Y3Sb4Au3,0.5757000000000003
mp-13978,Rb2ThF6,6.2733
mp-14193,K2ThF6,6.3857
mp-14232,LiBO2,7.281099999999999
mp-14649,Tb2Ge2O7,3.7452
mp-14983,Si4P4Ru,1.4604
mp-15687,KZnAs,0.20110000000000008
mp-15703,BeCN2,3.8512999999999993
mp-15983,Ba2NaNb5O15,2.4651
mp-16988,SrCu2SnS4,0.3978999999999999
mp-17042,Sc2P7Ru12,0.00730000000000075
mp-17129,Sr3(AlN2)2,1.9055
mp-18168,TlZnPO4,3.8952
mp-18572,KEr(PO3)4,5.2945
mp-18770,YCrO3,2.1502
mp-18849,Fe2P2O7,3.7687
mp-18883,YVO3,1.5639000000000003
mp-19123,Rb2LiVO4,3.965
mp-19727,PbCN2,1.7030999999999996
mp-19885,InGaS3,1.6761
mp-21255,FeGe,0.0964999999999998
mp-23427,Ti3(BiO3)4,2.424899999999999
mp-23617,Mg3B7ClO13,6.0063
mp-23667,RbP(HO2)2,5.2329
mp-23672,PH6NO4,5.506399999999998
mp-23683,H2CO,6.2385
mp-2469,CdS,1.0461
mp-27167,Sn2IF3,2.4355999999999995
mp-27399,SbBr3,3.3684
mp-29033,P3BrCl14,1.5683
mp-29314,RbVBr3,0.6053000000000002
mp-29515,PH2F3,6.4376
mp-29529,NaSnP,0.5842
mp-30148,BC2N,2.099400000000001
mp-30294,Sr2SnS4,2.4698
mp-32479,Tl3VO4,2.5950999999999995
mp-32570,Al2O3,4.5982
mp-32669,Ag2S,1.2959
mp-33024,H2S,4.0901
mp-33319,Pr3NF6,3.3097000000000003
mp-33508,TaGaO4,3.1573999999999995
mp-33880,Sr(GaTe2)2,0.28549999999999986
mp-34042,KY3F10,5.9967000000000015
mp-34330,MgAl2O4,4.3565999999999985
mp-34425,Zn(FeO2)2,1.5701
mp-3491,NbSbO4,2.4311000000000003
mp-35493,Zn2SnO4,0.8250999999999995
mp-36465,Al2FeO4,2.3609
mp-36582,NaHS,3.1472
mp-37091,Sr(AlTe2)2,1.4454000000000002
mp-37990,AlPO4,5.4590999999999985
mp-380,ZnSe,1.2004
mp-38394,Ba(AlTe2)2,1.5052999999999996
mp-38511,Ag2S,0.121
mp-39770,Zr2P3H4NO12,4.2944
mp-4051,AlPO4,5.475
mp-4514,NaNbO3,2.8299000000000003
mp-4549,SrSiN2,2.9695
mp-4559,BaCO3,4.4099
mp-504864,YCu(WO4)2,1.4969999999999994
mp-510766,MnBO3,0.0035000000000000586
mp-5368,Li2GeF6,6.0486
mp-540118,MnPO4,0.3679000000000001
mp-542613,GeS2,2.2429
mp-554159,Li2BeSiO4,5.5993
mp-554199,RbSnIO6,2.1505
mp-554722,Y3GaO6,3.6807
mp-554791,RuO4,2.4251
mp-554947,NaSiBO4,5.4139
mp-555147,SiO2,5.3615
mp-555320,Li4CO4,5.351
mp-555609,Sr9Zn4(CuO7)2,1.7851
mp-555731,SrGeO3,3.0028
mp-556100,Si(Sn3O4)2,1.9004000000000003
mp-556163,Zn2SiO4,2.6857
mp-556284,MnAlF5,4.4125000000000005
mp-556372,CaSO4,5.6869
mp-556553,SiO2,5.1327
mp-556916,GaAgS2,1.0178000000000005
mp-557118,SiO2,5.4995
mp-557203,SrZrO3,3.3637000000000006
mp-557308,ZnS,2.0245
mp-557387,Sr2TmNbO6,2.8576999999999995
mp-557653,SiO2,4.1138
mp-558042,Sm3CuSnS7,1.6872999999999996
mp-558118,BeF2,8.0867
mp-560025,Ag2S,0.36839999999999984
mp-560210,CaH2(CO2)2,4.6823
mp-563025,Na6PbO5,1.0556
mp-567677,GeI2,1.9586
mp-567809,AgI,1.5959999999999999
mp-567885,C3N4,1.4139000000000004
mp-568598,Cu2HgI4,0.29800000000000004
mp-569346,CuI,1.2172
mp-570437,CdI2,2.3562000000000003
mp-570589,SeBr,1.5061
mp-570922,MgCl2,4.9060000000000015
mp-571156,Mg(BH4)2,6.0799
mp-5777,BaTiO3,2.293
mp-5986,BaTiO3,1.7228
mp-613733,K2PdN2(ClO2)2,1.8939
mp-618177,K2ZnCl4,4.4075000000000015
mp-622295,NaMo(PO4)2,2.4921
mp-625142,Re2H4O9,1.9464
mp-625150,ScHO2,4.412
mp-625956,Co(HO)2,2.2614
mp-625998,LiHO,4.022
mp-626073,Al(HO)3,4.574
mp-626448,H4SO5,5.643
mp-626506,NaHO,2.7884
mp-626843,Ni(HO)2,1.87
mp-643432,H3N,4.439
mp-643708,LiH2IO,3.6278000000000006
mp-643814,Zn2SiH2O5,3.1428
mp-644419,LiHS,3.5253
mp-669367,KAl(SO4)2,5.4996
mp-675022,CsPbCl3,2.3102
mp-675436,Sm2Zr2O7,2.5065
mp-675977,AgBiS2,0.3349000000000002
mp-676020,BaCO3,4.0177999999999985
mp-684580,AgI,1.3146
mp-691107,FeOF,1.6921
mp-6922,SiO2,5.5311
mp-696130,Li10Ge(PO6)2,4.4506
mp-696736,RbBe2F5,7.0859000000000005
mp-697135,H2S,3.5201
mp-705456,Li2FeP2HO8,2.1373
mp-721246,Sr6CoC2N7,0.2744
mp-7456,SnF2,3.2629
mp-752415,NbO2F,1.6800000000000002
mp-753775,BaCaI4,2.7145
mp-754071,Pb2O3,0.13529999999999998
mp-754117,YHO2,4.8376
mp-754202,CsClO3,5.3706000000000005
mp-754212,BaSr2I6,3.9768
mp-754578,TmGaO3,3.6067
mp-754628,WN2,0.8351
mp-754659,Zr3N2O3,2.7098
mp-754718,NaCuO2,0.7769999999999999
mp-754954,Ag2Se,0.13839999999999986
mp-755132,Zr3N2O3,2.677
mp-755568,GaBiO3,3.0525
mp-755685,SmYO3,4.2039
mp-755731,Ta2Pb2O7,1.6231
mp-7583,SiS2,3.2912
mp-758533,Li3Sb(PO4)2,2.9071
mp-758688,Li2CuF4,0.8173
mp-760360,Hf3N2O3,3.2886
mp-760432,Cu2O3,0.12380000000000012
mp-761325,Li2MnSiO4,2.7378
mp-761461,LiFePO4,3.4944
mp-761467,LiFePO4,3.1047
mp-761669,Li2Ti3CoO8,1.8695
mp-761828,LiCoPO4,2.7612
mp-762221,LiCoSiO4,1.556
mp-762648,LiFeSiO4,1.8731
mp-762722,LiCoSiO4,1.4112999999999998
mp-763348,Li2MnF4,4.0445
mp-763489,LiVPO4,2.6635
mp-764354,LiMnF5,1.652
mp-7648,SiO2,5.3774000000000015
mp-764810,LiMnF4,2.7814
mp-765233,VF4,2.7348
mp-765254,W(OF)2,1.6949
mp-765313,Li4MnO2F3,1.2721
mp-765436,FeSbO4,0.8845999999999998
mp-765518,Li3Co3OF7,2.6365
mp-765618,Mn6O7F5,0.23039999999999994
mp-765875,LiMnPO4,3.5998
mp-765877,Li5NiOF5,1.7733
mp-765970,Ti3Sn7O20,1.7439
mp-766765,LiFePO4,3.6723
mp-766909,LiVF6,3.23
mp-766949,Li3VF8,1.3808999999999998
mp-767016,NbVO4,0.7427000000000001
mp-767031,Ta2MnO6,2.1698000000000004
mp-767110,Li2MnO2F,0.7828999999999997
mp-767829,FePO4,2.7569
mp-768152,NaZrPCO7,4.0075
mp-768221,YBiO3,3.0834000000000006
mp-768230,SmTaO4,3.4666
mp-768863,PrAsO4,3.7124
mp-768907,Sr3TeO6,3.0473
mp-769148,Sc(ClO4)3,3.1683
mp-770149,Li2CrO3,1.4081
mp-770391,Li2CrO2,1.4700000000000002
mp-771605,Li2CrFeO4,1.2734
mp-771809,CrSbO4,1.7929
mp-772052,CdSeO4,1.8471
mp-773044,LiCuO2,0.33030000000000004
mp-774004,Li4V2SiGeO10,2.1785
mp-774101,LiFeO2,1.7748999999999997
mp-774153,CrSbO4,1.4469999999999996
mp-7748,NaAlO2,4.7292000000000005
mp-774922,Ti3TeO8,3.157
mp-775093,Li5CoO4,1.5084
mp-775531,LiMnO2,0.9007000000000001
mp-775626,NaV5O8,1.2919
mp-775808,MgO,3.4114000000000004
mp-776038,LiFeF4,3.3284
mp-776922,Rb2O,0.19210000000000005
mp-776939,LiVF4,2.1946000000000003
mp-777130,Li2FeF4,3.3952
mp-777483,Ge2N2O,2.3193
mp-777553,LiFeF4,3.3558
mp-778392,Li2MnF6,2.3745000000000003
mp-779416,VOF2,1.7087
mp-780490,LiCr(PO4)2,1.1546
mp-7885,AlAgS2,1.7077
mp-8059,SiO2,5.5887
mp-830,GaN,1.5635
mp-8355,KAlSiO4,4.5002
mp-849984,LiV4O5F7,1.4352
mp-850895,Li2VOF3,1.6824
mp-850964,Li3CrO4,1.3019999999999998
mp-853130,TiNiO3,2.5877
mp-853165,Li5CoOF5,1.0417999999999998
mp-853218,V6O5F19,1.9655
mp-866810,Ca2SnS4,2.4422999999999995
mp-972448,SmBS3,2.3890000000000002
mp-984604,TiPHO5,2.8786
mp-989604,YMoN3,1.836
mp-989615,YWN3,2.1947
mp-995226,H2CO,6.0267
mp-998561,CsSrCl3,5.2391000000000005
mp-1003637,LiMn3O6,0.3256999999999999
mp-1003766,NaMn2O4,0.4962
mp-1004373,LiMnO2,1.0353
mp-1004375,MgMn4O8,0.23139999999999986
mp-1014168,CsPbBr3,1.8178
mp-1018891,PdCl2,0.7861999999999999
mp-1019601,CeZr7O16,2.1228
mp-1027053,Te4Mo3W(SeS)2,0.13419999999999987
mp-1027072,Te2MoWSeS,0.1559999999999997
mp-1027074,Te2MoWSeS,0.10809999999999986
mp-1027080,Te4Mo3W(SeS)2,0.0032999999999998586
mp-1027091,MoW(SeS)2,0.6276999999999999
mp-1027096,MoW3(Se3S)2,0.7005999999999997
mp-1027109,Mo3W(Se3S)2,0.7018
mp-1027112,MoW3(SeS)4,0.6724000000000001
mp-1027115,MoW3(SeS3)2,0.5772000000000004
mp-1027127,MoW(SeS)2,0.6654
mp-1027129,Mo3W(SeS)4,0.6067999999999998
mp-1027133,Te4Mo3W(SeS)2,0.16000000000000014
mp-1027139,MoWSe3S,0.7308000000000003
mp-1027140,MoW3(SeS)4,0.6412999999999998
mp-1027141,MoWSe3S,0.7408000000000001
mp-1027143,MoWSeS3,0.5151000000000003
mp-1027145,Mo3W(Se3S)2,0.7651000000000003
mp-1027147,MoW(SeS)2,0.6580000000000004
mp-1027150,MoW(SeS)2,0.6591
mp-1027152,Te6Mo3WS2,0.03149999999999986
mp-1027159,MoW(SeS)2,0.6122999999999998
mp-1027168,Te4Mo3W(SeS)2,0.2366999999999999
mp-1027169,Te4MoW3S4,0.030200000000000227
mp-1027170,Te2MoWSeS,0.19500000000000028
mp-1027176,Te4MoW3(SeS)2,0.18030000000000035
mp-1027267,Mo3W(SeS)4,0.7035999999999998
mp-1027269,MoWS4,1.245
mp-1027273,MoW3S8,1.2576
mp-1027274,MoWSeS3,0.5998999999999999
mp-1027281,MoWSeS3,0.4950000000000001
mp-1027292,MoWSeS3,0.6067
mp-1027293,MoWSeS3,0.5724
mp-1027294,Mo3W(SeS3)2,0.5340000000000003
mp-1027311,Te2MoWSeS,0.11509999999999998
mp-1027328,MoW3(SeS3)2,0.5672999999999999
mp-1027334,Te4Mo3W(SeS)2,0.2664
mp-1027335,MoWS4,1.2209000000000003
mp-1027339,Te2Mo2SeS,0.13559999999999972
mp-1027348,TeMoWSe2S,0.10840000000000004
mp-1027351,Te4Mo3W(SeS)2,0.19159999999999974
mp-1027358,TeMoS,0.28679999999999994
mp-1027376,MoW(SeS)2,0.6365000000000003
mp-1027382,TeMoWSeS2,0.5877000000000003
mp-1027391,MoWSeS3,0.5973999999999999
mp-1027404,Mo3W(Se3S)2,0.7340000000000001
mp-1027408,Te6Mo3WS2,0.06469999999999976
mp-1027409,Mo3W(SeS)4,0.6364999999999998
mp-1027440,MoW(SeS)2,0.6385999999999998
mp-1028686,W2Se3S,0.6281999999999999
mp-1028698,WSe2,1.1997000000000002
mp-1028730,Te4MoW3Se4,0.23220000000000066
mp-1028731,TeW2Se3,0.033199999999999896
mp-1028749,TeWSe,0.2393000000000001
mp-1028762,TeW2Se3,0.10650000000000004
mp-1028764,WSeS,0.7921
mp-1028767,Te6MoW3S2,0.012700000000000156
mp-1028768,Te4MoW3Se4,0.07240000000000002
mp-1028769,W2Se3S,0.9274
mp-1028772,WSeS,0.8118000000000003
mp-1028825,Te4MoW3(SeS)2,0.0411999999999999
mp-1028826,Te6MoW3S2,0.001100000000000101
mp-1028828,Te2MoWSe2,0.057799999999999414
mp-1028830,Te2MoWSe2,0.26259999999999994
mp-1028832,MoW(SeS)2,0.5540000000000003
mp-1028843,Te3MoWSe,0.33389999999999986
mp-1028851,Te4MoW3Se4,0.0141
mp-1028855,MoW3(SeS)4,0.6073999999999997
mp-1028857,MoWSe3S,0.6859999999999999
mp-1028917,MoW3(SeS3)2,0.5093999999999999
mp-1028919,Te2MoWSeS,0.12670000000000006
mp-1028922,MoW3(Se3S)2,0.6959
mp-1028929,Te2Mo(WS2)3,0.04600000000000026
mp-1028930,MoW3(SeS)4,0.7551999999999999
mp-1028931,Te2MoWSe2,0.3958999999999997
mp-1028938,Te2MoWSeS,0.042100000000000026
mp-1028952,MoW3(Se3S)2,0.8952
mp-1028978,MoWSe4,1.0175999999999998
mp-1028985,Te3MoWS,0.02610000000000001
mp-1028998,MoWSe3S,0.8344
mp-1029026,MoW3(SeS)4,0.7568000000000001
mp-1029031,MoW3(SeS)4,0.7807000000000004
mp-1029037,MoW3(SeS3)2,0.6821000000000002
mp-1029043,MoW3(Se3S)2,0.8647
mp-1029059,Te4MoW3(SeS)2,0.006199999999999761
mp-1029062,MoW3(SeS)4,0.5837000000000003
mp-1029063,TeMoWSeS2,0.18599999999999994
mp-1029066,Te2MoWSe2,0.12399999999999968
mp-1029069,MoW(SeS)2,0.5893999999999999
mp-1029073,Te2Mo(WSe2)3,0.006299999999999972
mp-1029075,Te3MoWSe,0.006299999999999972
mp-1029077,MoW(SeS)2,0.7818
mp-1029101,Te4MoW3Se4,0.13239999999999966
mp-1029102,Te2MoWSe2,0.11109999999999998
mp-1029143,Te6Mo3WSe2,0.009299999999999642
mp-1029144,Te2MoWSe2,0.06750000000000034
mp-1029161,Te4Mo3WSe4,0.06630000000000003
mp-1029166,Te4MoW3S4,0.11129999999999997
mp-1029179,MoW(SeS)2,0.581
mp-1029232,MoW3(SeS3)2,0.5316999999999998
mp-1029234,MoW3(SeS3)2,0.5024000000000002
mp-1029236,Te3MoWSe,0.016000000000000014
mp-1029245,Te2MoWSe2,0.25800000000000045
mp-1029252,Te3MoWSe,0.3442999999999996
mp-1029255,Te6MoW3Se2,0.31099999999999994
mp-1029256,Te4MoW,0.5682999999999998
mp-1029259,Te2MoWSe2,0.2509999999999999
mp-1029264,Te4MoW3Se4,0.38180000000000014
mp-1029940,Te2MoWSeS,0.16369999999999996
mp-1029947,Te2MoWSeS,0.03780000000000028
mp-1029950,Te2MoWS2,0.2994999999999997
mp-1029951,Te2MoW3(Se2S)2,0.5293999999999999
mp-1030101,Te4MoW3Se4,0.2897999999999996
mp-1030104,Te6MoW3Se2,0.3418000000000001
mp-1030106,Te4MoW,0.5948000000000002
mp-1030107,Te6MoW3Se2,0.31820000000000004
mp-1030108,Te8MoW3,0.5941999999999998
mp-1030119,MoWS4,1.1949
mp-1030120,Te4MoW3Se4,0.2556999999999996
mp-1030131,MoWSeS3,0.4556
mp-1030146,MoWSeS3,0.5496000000000003
mp-1030155,Te8Mo3W,0.5529999999999999
mp-1030156,Te4Mo3WSe4,0.15359999999999996
mp-1030158,Te4MoW3Se4,0.07739999999999991
mp-1030160,Te6Mo3WSe2,0.3620999999999999
mp-1030161,Te3MoWSe,0.34999999999999964
mp-1030164,Te2MoWSe2,0.24399999999999974
mp-1030165,Te2MoWSe2,0.06979999999999986
mp-1030194,Te6Mo3WSe2,0.014000000000000234
mp-1030195,Te3MoWS,0.004599999999999938
mp-1030212,Te2MoWSeS,0.08820000000000006
mp-1030235,Te3MoWSe,0.0057999999999998044
mp-1030239,Te2MoWSe2,0.027900000000000258
mp-1030270,TeMoWS3,0.4432999999999998
mp-1030281,Te6Mo3WS2,0.04470000000000018
mp-1030292,Te2MoWSe2,0.07419999999999982
mp-1030295,Te3MoWSe,0.005100000000000104
mp-1042260,Ca(SbO2)2,2.1616
mp-1047646,Ca(MoO2)2,1.3125999999999998
mp-1110582,Rb2ScAuF6,1.6882