task_id,pretty_formula,band_gap
mp-978253,Ce3(SiRh)2,0.0
mp-978254,La3Ag,0.0
mp-978255,MgTi3,0.0
mp-978257,MgSn3,0.0
mp-978258,MgTa,0.0
mp-978262,MgTl3,0.0
mp-978263,MgU,0.0
mp-978264,MgW3,0.0
mp-978268,MgZn,0.0
mp-978270,MgZr3,0.0
mp-978272,Mg3Br,0.0
mp-978279,Mg3Cu,0.0
mp-978280,Mg3Ga,0.0
mp-978283,Mg3In,0.0
mp-978288,MgNi,0.0
mp-978293,Mg3Pb,0.0
mp-978785,Si4MoPt3,0.0
mp-978809,SmAs2Au,0.0
mp-978840,SrLi2(SiN2)2,3.436
mp-978850,Sm2ReC2,0.0
mp-979340,Sr2LiTaN3F,2.934
mvc-10912,CaMnIrO6,0.0
mvc-10994,Ca3Co2(Si2O7)2,1.4669999999999999
mvc-11007,CaFeMoO6,0.0
mvc-11306,Al13(CuS8)3,0.0
mvc-11307,CaCo2S5,0.0
mvc-11332,Ca5(VN3)2,0.0
mvc-11351,Ca3(CrN3)2,0.017300000000000093
mvc-11373,CaMnWO6,0.9099999999999999
mvc-11425,CaNi2S5,0.0
mvc-11632,VBiO5,0.12879999999999997
mvc-11637,Fe3P3O13,0.049199999999999994
mvc-11769,Al10(Cu2O7)3,0.0
mvc-11835,Al14(CuS8)3,0.0
mvc-11845,Al5(CuO4)3,0.0
mvc-11862,CaCu2(As2O7)2,0.36819999999999997
mvc-11864,Rb6Al2(Sb2O7)3,0.0
mvc-11893,Ba3Al4(Sb2O7)3,0.0
mvc-11911,Al5(NiO4)3,0.0
mvc-11950,CaNd2Ti2Mn2O12,1.3364000000000003
mvc-11996,Zn3Bi2(PO6)2,0.0
mvc-12007,Y2(CuS2)3,0.0
mvc-12063,FeO2,0.0
mvc-12088,Al5(BiSe4)3,0.0
mvc-12090,Al5(BiS4)3,0.0
mvc-12122,VCuO4,0.19350000000000003
mvc-12132,CaTiO2,0.0
mvc-12194,Al10(Bi2O9)3,0.0
mvc-12198,Fe(SiO3)2,0.0
mvc-12222,Ca6Mn3Al2O15,0.0
mvc-12286,Ca2Nb2CoO9,0.9804999999999999
mvc-12300,Y5Mn3(NiO6)3,0.0
mvc-12763,CaCo2(P2O7)2,0.49950000000000006
mvc-12764,Ca3Fe2(MoO6)2,1.7666999999999997
mvc-12765,Ca3Fe2(ReO6)2,0.0
mvc-12806,Mg3Bi2(PO6)2,0.0
mvc-12808,CaCr2(P2O7)2,1.5773000000000001
mvc-12815,Bi6P2O15,0.0
mvc-12826,Ca3(CoO3)2,1.2672999999999999
mvc-12893,Al4(NiO4)3,0.0
mvc-12911,V4Zn(PO4)6,1.3616000000000001
mvc-13141,Al4(FeO4)3,0.0
mvc-13155,Mn3AlF15,0.20899999999999963
mvc-13160,Ba6YTl3(Cu2O7)3,0.0
mvc-13181,FeO2,0.0
mvc-13329,Sr9Zn2(CuO7)2,0.0
mvc-13345,Al5(NiO4)3,0.0
mvc-13349,Al5(CoO4)3,0.43950000000000067
mp-1008282,Cr3Fe,0.0
mp-1014138,ZrB,0.0
mp-1014365,Cr3N4,0.0
mp-1024,CaGe2,0.0
mp-1075937,Rb2W2O5,0.0
mp-1078988,Mg7V,0.0
mp-1079278,Sr(AlAu)2,0.0
mp-1080623,Si2N3,0.0
mp-1094016,YbMnSb2,0.0
mp-1094421,Mg2Zn,0.0
mp-1096935,CrN2,0.0
mp-1097352,Nb2FeMo,0.0
mp-1099220,CsMg14WO16,0.0
mp-1099278,BaMg6Fe,0.0
mp-1099293,HfMg6Ni,0.0
mp-1099696,SrCa7Mn7FeO24,0.0
mp-1099936,BaSr7Fe6(CoO12)2,0.0
mp-1100149,CsRbMg6,0.0
mp-1100174,CsMg6Bi,0.0
mp-1101261,VCr2O6,0.0
mp-11029,Y(Al2Cu)4,0.0
mp-1105546,LaFe4(CuO4)3,0.0
mp-11176,Ca3(SiIr)4,0.0
mp-1120759,PdSe2,1.5068000000000001
mp-1120802,Li12MnCo(Ni5O12)2,0.0
mp-139,Sr,0.0
mp-14,Se,0.9987999999999999
mp-15248,K3Nb3(BO6)2,1.9127999999999998
mp-1632,NdB4,0.0
mp-16505,La3Al11,0.0
mp-18890,CaFe(SiO3)2,3.0854999999999997
mp-19210,CoPtO2,0.0
mp-20193,DyCo3B2,0.0
mp-20982,K3Cu2F7,0.0
mp-21623,ThFe5P3,0.0
mp-21779,CaCuGe,0.0
mp-21820,Yb2Sn5Pt3,0.0
mp-22514,Mn2Sn,0.0
mp-2355,MoN,0.0
mp-27179,CsCrBr3,0.0
mp-28779,USbO5,0.0
mp-29359,Na2PdCl4,1.1864000000000001
mp-30171,Ho4Ge9Ir13,0.0
mp-30644,Hf3Nb2Ga3,0.0
mp-30880,Tb2Zn17,0.0
mp-3092,DyB2Ru3,0.0
mp-31364,Ce(Al5Ru)2,0.0
mp-34009,Ce(SmS2)2,0.0
mp-35835,Ag(AuS)2,0.0
mp-36529,Na3(WO3)10,0.0
mp-36982,Mg(TiS2)8,0.0
mp-3706,Ho2Co12P7,0.0
mp-505394,Zn(Mo4O5)2,0.18119999999999958
mp-5150,HoSi2Ni,0.0
mp-540500,Co3(P2O7)2,0.020000000000000018
mp-540803,Sr3(LiSb)4,0.0
mp-541987,K2PrH4N5O17,3.4924999999999997
mp-542728,Co21(B3Mo)2,0.0
mp-542754,Tb2Si5Os3,0.0
mp-5568,Nd3Co11B4,0.0
mp-565213,Lu3Fe5O12,1.6294999999999997
mp-569603,BaCa4(CuN2)2,0.23970000000000002
mp-570454,TaN,0.0
mp-570985,SiC,1.9612999999999996
mp-571624,Dy3Al2,0.0
mp-578618,NaMoO2,0.0
mp-580226,CuSe,0.0
mp-581707,ZrInAu2,0.0
mp-616166,Ba2Ho(CuO2)3,0.0
mp-631277,SrCrW2,0.0
mp-631520,TlBTe2,0.0
mp-632656,HoH3,0.05150000000000032
mp-637219,Mo4O5,0.0
mp-6416,Ba5Er8Zn4O21,3.3617999999999997
mp-653840,KCu7TeS5ClO24,0.0
mp-654033,La2Cu2O5,0.0
mp-654223,Mn11Ge8,0.0
mp-655297,K2PdN2(ClO2)2,1.727
mp-672715,Ba7(Fe3S7)2,0.0
mp-672986,SnPO4,0.0
mp-672993,LiBi2P5O18,0.0
mp-673020,Bi(PO3)4,0.0
mp-673116,Bi5(PO4)6,0.0
mp-673145,LiCu4(PO4)3,0.0
mp-673151,Cu4(PO4)3,0.0
mp-673156,Li2NbP4O13,0.40549999999999997
mp-673643,Ce17O32,0.0
mp-675046,Rb28(Mg3In17)3,0.0
mp-675061,Sr24Ta8O43,0.0
mp-675224,LaSb2Au,0.0
mp-675353,Sm3(Bi7Te12)2,0.0
mp-675360,Yb22Fe7S40,0.0
mp-675380,Nb15IrS32,0.0
mp-683943,Na2MoC3SeN3,1.6661000000000001
mp-684887,Fe24N11,0.0
mp-684949,Ca2F,0.0
mp-686139,Na19Zr11S30,0.0
mp-686149,Ag15(BiI4)16,0.0
mp-686230,Li20Nb19O60,0.0
mp-694908,Sr3La7Ti3Mn7O30,0.0
mp-694926,CaLa9Ti5Cr5O30,0.0
mp-694928,Ca3La5Mn7FeO24,0.0
mp-694940,MnAl2Sb2(PO4)6,2.4757999999999996
mp-694947,Sr5La3Mn8(O2F)8,0.0
mp-694948,TiFeO3,1.4863999999999997
mp-694954,Ca9LaTi9MnO30,0.0
mp-694961,Na9Sr2Nd9Ti20O60,2.1521999999999997
mp-694966,Li3V2(PO4)3,0.0
mp-695020,Na4Ga3Si3NO14,0.0
mp-695042,Sr9LaTi10O30,0.0
mp-695140,Ba4NbP4(O9F)2,0.0
mp-695252,Sr2La14Zn3Cu5O32,0.0
mp-695389,Ba18Pr9Sn4Sb5O54,0.0
mp-695475,Ca3YGa3B4O15,3.9960999999999998
mp-695655,KGaBP2H3O10,0.0
mp-697800,LiFe4P7O24,2.3367999999999998
mp-697807,LiMn4P7O24,0.9027000000000001
mp-697813,LiCr2(PO4)3,0.0
mp-7072,Th(CoSi)2,0.0
mp-721194,RbB5(H2O3)4,0.0
mp-721584,B5H8NO12,0.0
mp-721604,CuH4C2S2N2Cl,0.9968000000000001
mp-743917,Ca11YAl15Cr4SiO48,0.0
mp-743953,Ca2La8Ti5Cr5O30,0.0
mp-744008,Ca7La3Ti5Cr5O30,0.025900000000000034
mp-744126,Ca3La7Ti5Cr5O30,0.0
mp-744148,MnH8(NO5)2,2.8790999999999998
mp-744199,CaNdMn2O6,0.0
mp-744226,CoP3H16N4O11,0.9217000000000001
mp-744240,CaFe2P3HO12,1.8441000000000005
mp-744410,Ca5Gd3Ti5Mn3O24,0.9626000000000001
mp-744654,Mn6VSi5HO19,1.8620999999999999
mp-744823,CsMnH24(SO10)2,1.8193000000000001
mp-744853,Mo2H5C5N3O14,0.0017999999999998018
mp-744876,Sr8Nd2Fe5(MoO6)5,0.0
mp-745173,Na3Cd4P6H10(ClO8)3,0.09190000000000001
mp-757266,BaTi7O14,0.0
mp-757571,Ba13Nb14O42,0.0
mp-757603,Na13Ti24O54,0.0
mp-758025,Ba3(RhO2)14,0.0
mp-758120,Ba13Bi11O36,0.0
mp-758162,Sr16(Ru5O16)3,0.0
mp-760832,LiTi2O4,0.0
mp-761369,Li13Ni15O28,0.0
mp-761400,LiCrPO4,3.0856999999999997
mp-761423,La3Mn3O10,0.0
mp-761521,Li3Fe(PO4)2,2.4926999999999997
mp-761538,LiMnPO4,3.5980999999999996
mp-761542,LiMnPO4,3.6094000000000004
mp-761548,LiMnPO4,3.6088000000000005
mp-761667,NaV6O15,0.0
mp-761692,Ba4Fe4O11,0.0
mp-761747,La10Mn9O30,0.0
mp-761797,Li6Mn15O32,0.0
mp-763817,Li6Mn17O40,0.0
mp-763839,La8Ni4O17,0.0
mp-763864,Li2VCr(P2O7)2,2.1704999999999997
mp-763871,Li3Fe5O12,0.0
mp-763875,LiMn3OF8,0.25329999999999997
mp-763936,MnOF,0.02639999999999998
mp-763974,Li8TiNi7O16,0.0
mp-764814,Ni3(PO4)2,3.1207999999999996
mp-765492,Mn11Cu7O24,0.0
mp-765802,Mn12O5F19,0.0
mp-765905,Mn12O7F17,0.0
mp-766056,Mn12O5F19,0.0
mp-766107,NaV6O13,0.0
mp-766112,Li4MnV3(P2O7)4,0.0
mp-766140,K4Li7Mn2O8,0.12290000000000001
mp-766253,La2Th11O26,0.0
mp-766314,BaTi10O20,0.0
mp-766404,Ba8Cu8O19,0.0
mp-766483,Li7(Cu6S5)2,0.0
mp-766580,Cr11Ni40Mo9,0.0
mp-766854,Cr3(OF)2,1.5592000000000001
mp-771571,Li(FeO2)2,0.0
mp-771716,Li4FeTe(WO6)2,0.0
mp-771810,Li2MnNi3O8,0.0
mp-771812,Li4FeCu3O8,0.0
mp-772059,Li5Mn4O8,0.0
mp-773325,Li2V3O8,1.6301999999999999
mp-773326,Li2FeNiO4,0.0
mp-774280,Li2Fe3CuO8,0.0
mp-774311,Li3MnV(PO4)3,0.0
mp-774312,Li4CoNi5(PO4)6,0.0
mp-774322,Mn12O7F17,0.0
mp-774351,Li3Cr3(CuO6)2,0.0
mp-774456,InH11S2O13,3.9503999999999997
mp-774474,Li3Y14Ti14(S2O5)7,0.0
mp-774552,Li11Y14Ti14(S2O5)7,0.0
mp-774554,Li2Y14Ti14(S2O5)7,0.0
mp-774722,LiLa20Cu9O40,0.0
mp-774757,Na3PH12CO11,4.1941999999999995
mp-774800,Li15Zr7(Cu3O14)2,0.018899999999999917
mp-774838,Li2Y14Ti14(S2O5)7,0.0
mp-774943,Li2Fe3NiO8,0.0
mp-775286,Li2Fe3NiO8,0.0
mp-776812,Mn7Ni(PO4)12,0.0
mp-777016,LiFeF3,2.624
mp-777032,Li3V5O12,1.5843000000000003
mp-777111,Li11V12(OF)24,0.0
mp-777167,LiTiO2,0.0
mp-777315,Li2Mn3(BO3)3,0.0
mp-777473,Li5Mn8(BO3)8,0.41969999999999996
mp-777524,Li32Ti3Cr13O48,0.9361999999999999
mp-777614,Li32Ti3Cr13O48,1.1043000000000003
mp-777632,Li3MnB8O15,1.3799000000000001
mp-777671,Li7Mn8(BO3)8,0.41310000000000024
mp-777767,Li3Cu2(SO4)3,0.0
mp-777784,Li3Mn4(BO3)4,0.20970000000000022
mp-777836,Li14Co13O28,0.0
mp-777910,Li32Ti3Cr13O48,1.0519000000000003
mp-780596,Na(NiO2)2,0.0
mp-780686,Fe2O3F,0.0
mp-780829,Mn3OF5,0.44500000000000006
mp-780838,Mn3OF5,0.0
mp-849237,Na5Mn2O8,0.0
mp-849258,Li3Mn4(BO3)4,0.0
mp-849423,Li2MnVP2(HO5)2,0.48140000000000027
mp-850161,LiFeP2O7,1.7431999999999999
mp-850265,LiMnP2O7,0.43989999999999996
mp-850269,Li7Mn4(P2O7)4,0.15290000000000004
mp-850432,LiMn2(P2O7)2,0.033399999999999985
mp-861985,Er2IrRh,0.0
mp-862712,Sc2CoIr,0.0
mp-862829,PaTe2Au,0.0
mp-866496,Ca2SnS4,0.0
mp-868759,Mn15O32,0.0
mp-868928,Li6Mn9O20,0.0
mp-8736,Sr(Mo3S4)2,0.0
mp-945194,Na5(SiO3)6,0.0
mp-96,S,2.7405
mp-961645,LiAlGe,0.0
mp-961650,AlVNi,0.0
mp-961662,ZrNiGe,0.0
mp-961670,HfSiPt,0.0
mp-961686,HfSiNi,0.0
mp-961694,TiNiGe,0.0
mp-961696,MnCoSi,0.0
mp-961701,ZrAgB,0.0
mp-972514,SmTa3,0.0
mp-972526,SmSnAu2,0.0
mp-973457,LuO3,0.0
mp-975219,RbSr3,0.0
mp-977426,NbCo3,0.0
mp-978277,Mg3Cr,0.0
mp-982595,Na3Re,0.0
mp-982880,Pm3Y,0.0
mp-982885,KCaO3,0.0
mp-982975,LiBeO3,0.0
mp-982982,HfH3,0.0
mp-9830,NbP,0.0
mp-9831,LaGaO3,0.0
mp-983230,Ga3B,0.0
mvc-12176,CaTi4O8,0.0
mvc-15076,Zn(FeO2)2,1.8752999999999997
mvc-15446,Y(CoO2)2,0.0
mvc-3679,Ca3Si3(SbO6)2,2.9616999999999996
mvc-4223,Ti2Zn3(GeO4)3,0.0
mvc-5780,Mg2FeIrO6,0.0
mp-1023213,CaMg6B,0.0
mp-1023215,CaMg6B,0.0
mp-1023247,CaMg6C,0.0
mp-1023319,CaYMg6,0.0
mp-1023325,LaMg6Al,0.0
mp-1023362,BaMg6Al,0.0
mp-1023365,Mg6AlC,0.0
mp-1025023,TbCBr,0.0
mp-1025129,TmSnGe,0.0
mp-1025151,Cr2NiSe4,0.0
mp-1025173,Ti(MoS2)2,0.0
mp-1025174,U2Mo2C3,0.0
mp-1025175,Lu2Cr2C3,0.0
mp-1025180,Mn(CrSe2)2,0.0
mp-1025181,Tm2Cr2C3,0.0
mp-1025182,V2FeSe4,0.0
mp-1025189,Tb2Re2Si2C,0.0
mp-1025190,Co2NiSe4,0.0
mp-1025195,Nb2VSe4,0.0
mp-1025203,Ti2VSe4,0.0
mp-1025210,Nd2Re2Si2C,0.0
mp-1025224,V(CrS2)2,0.0
mp-1025232,V2CrSe4,0.0
mp-1025235,Fe(CoSe2)2,0.0
mp-1025239,Cr2CoTe4,0.0
mp-1025240,Dy2Re2Si2C,0.0
mp-1025245,La2Re2Si2C,0.0
mp-1025249,Sm2Re2Si2C,0.0
mp-1025262,Sm2Fe2Si2C,0.0
mp-1025264,U2W2C3,0.0
mp-1025266,Tb2Cr2C3,0.0
mp-1025268,Pu2W2C3,0.0
mp-1025279,Ti(CrSe2)2,0.0
mp-1025458,SmAl2Ni,0.0
mp-1025461,PrBrO2,3.1971999999999996
mp-1025468,CeAu,0.0
mp-1025470,LuTe3,0.0
mp-1025472,NpTe3,0.0
mp-1025478,TbAu3,0.0
mp-1025482,DyTe3,0.0
mp-1025485,LaZn2Co,0.0
mp-1025489,SmSi,0.0
mp-1025491,TbGe3,0.0
mp-1025494,EuClO2,0.0
mp-1025495,NdSi2Rh,0.0
mp-1025508,ErGa2Ni,0.0
mp-1025511,NdBrO2,3.2020999999999997
mp-1025513,ZrGe,0.0
mp-1025520,BaIn2Pd,0.0
mp-1025523,CeFeSi2,0.0
mp-1025537,TmTe3,0.0
mp-1025545,EuBrO2,0.0
mp-1025553,EuSi2Ni,0.0
mp-1025554,PrSi2Ag,0.0
mp-1025558,CeNiSn2,0.0
mp-1025559,TbFeSi2,0.0
mp-1025560,Ce2(CuGe)3,0.0
mp-1026863,Mg14CuSi,0.0
mp-1147690,NiOF,0.0
mp-1184311,Fe3Cu,0.0
mp-1185930,Mn3Sb,0.0
mp-1186620,PmMg2,0.0
mp-1195472,Pb3NO6,0.0
mp-1203356,HC2SClOF2,3.6978999999999997
mp-1205834,Er2Al4NiGe2,0.0
mp-1206679,YBiPt,0.0
mp-1210317,Rb2Mo3P3O17,2.3236999999999997
mp-1214507,Ba4Ga3Si20,0.0
mp-1215477,Zr2Al3Ni,0.0
mp-1215923,YTh,0.0
mp-1221111,NbFe,0.0
mp-1223778,IrW,0.0
mp-1238867,Cr2CuS4,0.0
mp-22512,Sr2In2O5,0.9984999999999999
mp-22955,LiIO3,3.6522000000000006
mp-27897,Ba(NO2)2,2.3587000000000002
mp-2824,AlPd2,0.0
mp-2868,Th11(Ru2C3)6,0.0
mp-2945,Yb(Mo3S4)2,0.0
mp-2960,HfSnRh,0.0
mp-3076,LaSnPt,0.0
mp-3119,NdTiO3,0.0
mp-3164,BaSO4,5.950699999999999
mp-3194,Tb2Al3Si2,0.0
mp-3219,EuPO4,0.0
mp-3222,La3RuO7,0.0
mp-32884,Ag2S,1.2996999999999999
mp-3524,LiPN2,3.8015999999999996
mp-3734,NdSi2Ni,0.0
mp-3770,Li2Ce2Ge3,0.0
mp-3775,Na2SiF6,6.9887999999999995
mp-3776,Er2Mo2C3,0.0
mp-3778,Mg3(Al9Cr)2,0.0
mp-3787,RbFe2S3,0.0
mp-5063,YAl3Ni2,0.0
mp-5082,Nd2Si3Rh,0.0
mp-5215,NdNiGe2,0.0
mp-5274,ThTi2O6,2.9198999999999997
mp-528,U2Zn17,0.0
mp-5603,NbCoTe2,0.0
mp-561,Nb3Se4,0.0
mp-5618,Mg2As2O7,3.0403000000000002
mp-5700,Sr2Cu3O5,0.0
mp-5749,Cr2FeSe4,0.0008999999999996788
mp-5773,BaRuO3,0.0
mp-5792,BaCuSn2,0.0
mp-5927,Cs2Mn3Te4,0.24839999999999973
mp-5942,NaAsS2,1.7428000000000001
mp-6019,Sr2YNbO6,3.2306999999999997
mp-6027,Ba2Tl2CuO6,0.0
mp-603128,SrEu2Fe2O7,0.0
mp-605,ZrTe5,0.044299999999999784
mp-6068,Sr2TbRuO6,0.18510000000000026
mp-607467,CaMoO3,1.2706999999999997
mp-6076,Ca4LaB3O10,4.299300000000001
mp-608320,NbNi2BO6,2.7318000000000002
mp-610232,BaV6O11,0.9087000000000001
mp-6150,Na4Zr2(SiO4)3,4.321199999999999
mp-618,Pd7Se2,0.0
mp-619611,Ca2FeWO6,0.9478999999999997
mp-619843,Nb2FeO6,2.2184999999999997
mp-6204,Cs2NaScF6,6.799099999999999
mp-622520,EuMn2O5,0.0
mp-6226,NaSn4(PO4)3,3.7411000000000003
mp-622693,Mn2NiO4,0.0
mp-624383,Na2VCuF7,0.0
mp-632348,YbHO2,0.0
mp-632442,Al4C3,0.0
mp-675578,Li2FeBr4,0.029099999999999904
mp-675618,Sr2RuO6,0.41900000000000004
mp-675621,Li5SnP3,0.0
mp-675671,Sc(VN)9,0.0
mp-6757,Ho4Si2S3O7,2.6198000000000006
mp-675723,NbHg2F6,0.0
mp-675734,Li7B18O,0.0
mp-675741,La10US16,0.0
mp-675747,V(FeSe2)2,0.0
mp-675843,CsCrI2,0.0
mp-675880,Cu2SnTe3,0.0
mp-675921,Ce3NF6,0.0
mp-675929,Ti(FeSe2)2,0.0
mp-675930,In3AsSe3,0.09980000000000011
mp-675942,AgClO2,0.0
mp-675954,Ga3Te3As,0.0
mp-675964,Li5GeAs3,0.0
mp-676073,Cr2CoSe4,0.0
mp-676089,Fe2CoSe4,0.0
mp-676105,Ba8Bi2F17,0.0
mp-676113,InAgS2,0.0
mp-676117,Li2CuGe,0.0
mp-676144,Ti(CrS2)2,0.0
mp-699368,Na3(W2O3)2,0.0
mp-705153,K4CoMo4O15,0.0
mp-705354,Mn4(PO4)3,0.0
mp-705416,Fe3O4,0.9833000000000003
mp-705454,NaCo2H3(SO5)2,0.0
mp-705458,SrNd7Fe8(AsO)8,0.0
mp-705511,Ce8Fe8As8O7F,0.0
mp-705576,Al2FeO4,0.0
mp-705581,Al2CoO4,0.0
mp-705592,Al2FeO4,0.04379999999999917
mp-705606,Al2CoO4,0.0
mp-707304,Be4Si2H2O9,5.739199999999999
mp-7159,La3TlC,0.0
mp-761961,Rb5(WO3)18,0.0
mp-762179,CrFe3Co2(PO4)6,0.0
mp-762193,Fe3Co2Sn(PO4)6,0.0
mp-762216,Mn3Co2Ni(PO4)6,0.0
mp-762222,Li2CuF4,0.9750000000000001
mp-762224,Li4Cu3Sb(PO4)4,0.0
mp-762234,Li4Ti3Mn3(TeO8)2,0.24509999999999987
mp-762249,V(CO3)2,1.566
mp-768986,Li5BiO4,1.9010000000000002
mp-768997,LiBi3O5,1.9093999999999998
mp-769334,EuSeO4,0.0
mp-769921,Ta2Mn2O7,1.9710999999999994
mp-778304,Mn3NiO8,1.1402999999999999
mp-7792,YScS3,1.7711000000000001
mp-8483,K2SO3,4.914899999999999
mp-853204,Li2MnSiO4,2.9242999999999997
mp-853227,Mn15NiO32,1.1139000000000001
mp-861618,BaBiBS4,1.9279000000000002
mp-863257,LiGa3,0.0
mp-863293,KFe3(PO6)2,0.0
mp-864665,Nd2Si3Rh,0.0
mp-974974,RbMg,0.0
mp-975160,Nd(Mg4Al3)4,0.0
mp-975321,LiSi3,0.0
mp-975341,La3Mg,0.0
mp-975359,Rb(FeAs)2,0.0
mp-975404,RbCa3,0.0
mp-985298,Ce2HfS5,0.0
mp-9853,LuP5,0.18769999999999953
mp-985562,Nd11In9Ni4,0.0
mp-985590,SiO2,5.515899999999999
mp-985593,NaAg(CO2)2,2.5393999999999997
mp-985699,CsV5S8,0.0
mp-985704,Ce2ReC2,0.0
mp-9867,Ba2Si3Ag,0.05239999999999956
mp-9882,Y2Si5Rh3,0.0
mp-9884,KFeSe2,0.0
mp-989388,Rb2SCl6F,0.0
mp-989399,Ca6Al2NF,0.0
mp-989402,Sr6In2NF,0.0
mp-989404,Ca6In2NF,0.0
mp-989512,LiTl2InCl6,2.8728000000000002
mp-989516,Cs2ICl6F,1.1260999999999999
mvc-13600,AlBiSe4,0.0
mvc-13703,VZn2SbO6,1.2046000000000001
mvc-13704,Zn2SbMoO6,0.0
mvc-13890,Mg2Bi3O8,0.0
mvc-13947,Ca2Sb3O8,0.0
mvc-14055,MgCr2S5,0.0
mvc-14086,Ca5(MnN3)2,0.0
mvc-14113,MgVBiO6,0.028499999999999998
mvc-14163,CaMoF5,3.7401999999999997
mvc-14203,Ca3Sb2O7,0.0
mvc-14247,Ca2FeRhO6,0.05650000000000022
mvc-14253,Ca3Mn2O7,0.09099999999999997
mvc-14279,ZnSbF5,3.7055999999999996
mvc-14357,Zn3Bi2O7,0.0
mvc-14378,Mg(FeO2)2,1.6623999999999999
mvc-14436,Al(MoS2)12,0.0
mvc-14455,CaMn2S5,0.0
mvc-14571,TiZn2SbO6,0.0
mvc-14742,Zn2Bi3O8,0.0
mvc-14773,CaFe2S5,0.0
mvc-14775,V2ZnS5,0.0
mvc-14832,Ca2CuRhO6,0.0
mvc-14856,Al2(CuO2)3,0.0
mvc-15100,Sr2CoCu2O7,0.0
mvc-15128,CaTiO2,0.0
mvc-15152,MnZnO2,0.0
mvc-15204,Ta2Bi2O9,0.0
mvc-15207,Ta2Bi2O9,0.0
mvc-15237,Ba4CaCu6(HgO8)2,0.0
mvc-15346,Mg2TiSbO6,0.0
mvc-15348,Mg2SnSbO6,0.0
mvc-15386,MgCuO2,0.0
mvc-15401,ZnCuO2,0.0
mvc-15407,CaTiO2,0.0
mvc-15459,La2MgWO6,0.0
mvc-15479,CaLa2WO6,0.0
mvc-15497,Mg2SbMoO6,1.1844000000000001
mvc-15519,ZnCoO2,1.0652000000000001
mvc-15568,ZnNiO2,1.5051999999999999
mvc-15602,MgSbO3,2.0554000000000006
mvc-15664,AgN,0.0
mvc-15677,ZnBiF6,0.0
mvc-15684,TiZnF6,4.2524999999999995
mvc-15694,CaSbF6,0.0
mvc-15700,TeF6,4.4437999999999995
mvc-15702,Zn(SnN)2,0.0
mvc-15736,Mg(WN)2,0.0
mvc-15744,Cu2B2C,0.0
mvc-15767,YSnO3,2.0970999999999993
mvc-15792,CaCuF5,0.0
mvc-15833,CaCoF6,1.3477000000000001
mvc-15838,ZnSnF5,0.0
mvc-15840,CaFeF6,0.0
mvc-15843,ZnFeF6,0.0
mvc-15849,CaVF6,0.0
mvc-15852,MgAgF5,0.0
mvc-15856,MgFeF6,0.0
mvc-15861,MgWF6,3.7460000000000004
mvc-15867,MgSnF5,0.0
mvc-15884,NiF4,0.9929000000000001
mp-6294,Sr2ErRuO6,0.0
mp-6323,BaYb2CuO5,0.0
mp-632693,Zr5(In2Rh)2,0.0
mp-632711,InHO2,1.8374999999999995
mp-632758,CaP(H2O3)2,0.0
mp-6328,Na2Ti2Sb2O,0.0
mp-632864,LiNiO2,0.0
mp-633442,Mn2H2SO6,2.8085999999999998
mp-633538,B9C,0.0
mp-633897,CoSiO4,0.9037000000000001
mp-6340,LiAl(SiO3)2,5.368399999999999
mp-634802,Np(OF)2,0.0
mp-634817,CaZn2(PO)2,0.0
mp-634867,TiF3,0.0
mp-635067,KSbO3,0.0
mp-6362,Sr2TbIrO6,0.0
mp-636253,GdCu5,0.0
mp-636256,LaCu6,0.0
mp-636946,Fe6Ge5,0.0
mp-637204,CeCu5Sn,0.0
mp-637249,LiEu2Ge3,0.0
mp-637267,Eu(C2N3)3,0.0
mp-637436,Tm10In20Co9,0.0
mp-676215,Li9Ta11N20,0.0
mp-676230,U2Bi2O7,0.0
mp-676247,NaYbF4,0.0
mp-676248,GaCuTe2,0.0
mp-676295,Li3MnP2,0.0
mp-676303,NaU2Cl6,0.0
mp-676371,K5(Mo6S7)4,0.0
mp-676377,Ti2CuS4,0.0
mp-676382,Yb2Zr2O7,0.0
mp-676398,Rb2CrCl4,0.0
mp-6765,Li3AlGeO5,3.9691999999999994
mp-676517,La3U2O10,0.21050000000000058
mp-676518,In3SbTe2,0.0
mp-676562,Yb3Sm3S8,0.0
mp-676664,KBa2DyBi2O9,0.0
mp-676685,LiNi9S10,0.0
mp-676713,Hf8PbO24,0.0
mp-676728,CdSnAs2,0.0
mp-676751,Cr5AgS8,0.0
mp-705635,Na3CaAl3Si3CO15,1.1480000000000001
mp-705670,V2Cu2O7,0.0
mp-705765,Li3Mn8O16,0.0
mp-705845,BaFeO3,0.0
mp-705847,Li2(CoO2)3,0.0
mp-705894,RbSi2Mo3P6O25,0.36450000000000005
mp-705906,SrLa3Mn4O12,0.0
mp-762268,Li3V2O6,1.3016999999999999
mp-762277,LiFeP2HO8,0.0
mp-762278,Mn3Fe2Co(PO4)6,0.0
mp-762282,Li3Cr5O10,0.0
mp-762286,Li6(NiO2)5,0.0
mp-762290,Li4Fe3Co(PO4)4,1.5836999999999999
mp-762294,Mn2V3Fe(PO4)6,0.0
mp-762298,Li2CrSiO4,1.9817999999999998
mp-762379,Mn3FeCo2(PO4)6,0.0
mp-762386,Li3(NiO2)5,0.49629999999999974
mp-769538,Li3Mn2(SiO4)2,0.0
mp-769553,Li5Co2Ni3O10,0.0
mp-769558,LiMn(CO3)2,0.0
mp-769561,Li4Mn3Fe3(NiO8)2,0.0
mp-769619,Ni2PO5,0.0
mp-7698,NdS2,0.0
mp-769830,Li5Fe5(CuO6)2,0.17280000000000006
mp-770284,SmTaO4,3.6104000000000003
mp-7794,KSnS2,0.0
mp-7795,RbSnS2,0.0
mp-779582,Rb19O3,0.0
mp-779593,Na5LaO4,1.9400000000000002
mp-779698,ZnTe2O5,3.0117999999999996
mp-779818,Mn2O3,0.0
mp-779819,Ni7(P2O7)4,0.0
mp-779823,Li3Cr(Si2O5)3,3.8688000000000002
mp-863692,CsMn(CN)3,0.0
mp-863878,VF4,1.9188999999999998
mp-863887,LiFeSiO4,2.5141999999999998
mp-8651,Gd(AlSi)2,0.0
mp-865153,LiCoPO4,2.7350999999999996
mp-865182,Gd2SCl4,1.7004000000000001
mp-8653,CeSiRu,0.0
mp-8654,PrSiRu,0.0
mp-8655,SmSiRu,0.0
mp-8658,CsNaSe,2.027
mp-866684,RbTh3F13,5.810700000000001
mp-8667,CeB2C,0.0
mp-866728,K2CrH2F8,1.9070999999999998
mp-867522,CsTi8O16,0.0
mp-975424,Rb(Mg4Al3)4,0.0
mp-9755,HfGeO4,4.161099999999999
mp-975570,PuNiC2,0.0
mp-975586,Pr3Y,0.0
mp-975589,Ho6Bi2Rh,0.0
mp-975590,Kr,7.1813
mp-975599,Pr3Er,0.0
mp-975601,Pr3Cl,0.0
mp-975612,GdEr3,0.0
mp-975634,Pr2Ge5Rh3,0.0
mp-975642,Pr3Cu,0.0
mp-975647,Pr3Ag,0.0
mp-975649,LiTm3,0.0
mp-975651,PrTm3,0.0
mp-976347,Kr,7.1703
mp-976591,GdMn3,0.0
mp-976920,Ni9S8,0.0
mp-976935,Ni3Hg,0.0
mp-976953,Ni3Te,0.0
mp-976976,MgPd5,0.0
mp-977053,Pm3Er,0.0
mp-977059,MgPd5,0.0
mp-977119,Li3Be,0.0
mp-989517,Cs2SBrCl6,0.0
mp-989521,Cs2SCl6F,0.0
mp-989522,Mg6Bi2PN,0.22609999999999975
mp-989527,Cs2NaNF6,2.8011999999999997
mp-989540,Sr6Sn2NO,0.0
mp-989541,Rb2NaSbF6,4.124899999999999
mp-989542,Ba6Tl2NCl,0.0
mp-989543,Cs2BrCl6F,0.9489000000000001
mp-989545,Rb2NaSbCl6,3.0524999999999998
mp-989556,Cs2NaPbF6,0.0
mp-989557,YTcN3,0.0
mp-989559,Cs2NaLiF6,0.0
mp-989560,Cs2TlSiH6,0.0
mp-989566,Rb2InGaF6,3.2666999999999997
mp-989568,Cs2NaMgF6,0.0
mp-989569,Rb2NaPbF6,0.0
mp-989571,Cs2NaInCl6,2.9903999999999997
mp-989572,Cs2NaCaF6,0.0
mp-989573,Rb2BrCl6F,0.9202999999999999
mp-989574,Cs2NaSrF6,0.0
mp-989581,LaReN3,0.0
mp-989582,Ca6Pb2SeN,0.0
mp-989584,Ca6Sn2NO,0.0
mp-989585,Cs2KPbF6,0.0
mp-989587,K2SBrCl6,0.0
mp-989588,LaOsN3,0.0
mp-989592,Sr6Sn2NF,0.0
mp-989593,LaTcN3,0.0
mp-989611,YReN3,0.0
mp-989618,Cs2RbGaF6,5.939299999999999
mp-989619,LaTcN3,0.0
mp-989620,LaTaN3,0.49709999999999965
mp-989628,YReN3,0.0
mp-989631,LaMoN3,2.0896999999999997