task_id,composition,band_gap
mp-1079596,Er2NiSn6,0.0
mp-1213006,Er2OsC2,0.0
mp-867213,Er2OsPd,0.0
mp-1225638,Er2P7Rh12,0.0
mp-31090,Er2Pd2Pb,0.0
mp-983555,Er2PdAu,0.0
mp-1184099,Er2PdPt,0.0
mp-983581,Er2PdRh,0.0
mp-866281,Er2PdRu,0.0
mp-30610,Er2Pt,0.0
mp-1184114,Er2Pt2O5,0.0
mp-1025362,Er2Re2Si2C,0.0
mp-1204807,Er2Re3Si5,0.0
mp-1201657,Er2ReB6,0.0
mp-20799,Er2ReC2,0.0
mp-30902,Er2Ru2O7,0.0
mp-1184081,Er2RuAu,0.0
mp-1184144,Er2RuPt,0.0
mp-863666,Er2RuRh,0.0
mp-1225518,Er2SbO2,0.0
mp-1184138,Er2Sc2O5,0.0
mp-1212960,Er2Sc3Si4,0.0
mp-1225750,Er2Si3,0.0
mp-1225562,Er2Si3Ni,0.0
mp-1212897,Er2Si3Pd,0.0
mp-4289,Er2Si3Rh,0.0
mp-1106326,Er2Si4Mo3,0.0
mp-1188596,Er2Si5Ni3,0.0
mp-1212876,Er2Si5Rh3,0.0
mp-8808,Er2Si5Ru3,0.0
mp-1225524,Er2SiGe,0.0
mp-1077251,Er2SiRh3,0.0
mp-1105178,Er2Sn5,0.0
mp-557806,Er2Tc2O7,0.0
mp-1184130,Er2TcAg,0.0
mp-510085,Er2Ti3Si4,0.0
mp-863667,Er2TlAg,0.0
mp-861628,Er2TlCd,0.0
mp-1184101,Er2TlHg,0.0
mp-1184088,Er2TlIn,0.0
mp-1184108,Er2TlZn,0.0
mp-1225804,Er2U3O11,0.0
mp-1225609,Er2US3O2,0.0
mp-566468,Er2V2O7,0.0
mp-30963,Er2Zn17,0.0
mp-1184083,Er2ZnAg,0.0
mp-983908,Er2ZnAu,0.0
mp-983583,Er2ZnCu,0.0
mp-1184077,Er2ZnGa,0.0
mp-1184082,Er2ZnHg,0.0
mp-862788,Er2ZnIn,0.0
mp-862789,Er2ZnIr,0.0
mp-861636,Er2ZnOs,0.0
mp-862895,Er2ZnRu,0.0
mp-862914,Er2ZnTc,0.0
mp-1225719,Er3(Al2Fe)2,0.0
mp-1212920,Er3(Al3Os)4,0.0
mp-1212925,Er3(Al3Ru)4,0.0
mp-17141,Er3(AlNi3)2,0.0
mp-1078499,Er3(CoGe2)2,0.0
mp-567621,Er3(CuGe)4,0.0
mp-5454,Er3(CuSi)4,0.0
mp-1103053,Er3(CuSn)4,0.0
mp-1103481,Er3(FeGe)4,0.0
mp-1190853,Er3(GaNi3)2,0.0
mp-1212969,Er3(GeRh)2,0.0
mp-1205952,Er3(In2Co)2,0.0
mp-570798,Er3(P3Pd10)2,0.0
mp-1193806,Er3(SbPd2)4,0.0
mp-1212872,Er3(Si3Pd10)2,0.0
mp-5354,Er3(Si3Ru)4,0.0
mp-1192164,Er3(SiNi3)2,0.0
mp-31181,Er3Al2,0.0
mp-1201730,Er3Al2Ni6H7,0.0
mp-1205920,Er3Al3CoGe2,0.0
mp-12388,Er3Al3NiGe2,0.0
mp-568021,Er3AlC,0.0
mp-1017558,Er3AlN,0.0
mp-1190746,Er3AlNi8,0.0
mp-983604,Er3As,0.0
mp-1203719,Er3C4,0.0
mp-1181434,Er3Co11B4,0.0
mp-21951,Er3Co29(Si2B5)2,0.0
mp-1212859,Er3Co2Si3,0.0
mp-1196873,Er3Co4Ge13,0.0
mp-568196,Er3CoSi3,0.0
mp-14503,Er3CrB7,0.0
mp-558980,Er3CuSiS7,1.876
mp-1212880,Er3Fe2Si3,0.0
mp-1190715,Er3FeB7,0.0
mp-1104653,Er3FeGe3,0.0
mp-12837,Er3FeSi3,0.0
mp-1184165,Er3Ga,0.0
mp-1198546,Er3Ga2,0.0
mp-1213152,Er3Ga2Ge3,0.0
mp-1197972,Er3Ga5,0.0
mp-1104332,Er3Ga8Au3,0.0
mp-1104360,Er3Ga8Ir3,0.0
mp-1225820,Er3Ga8Ni3,0.0
mp-1104574,Er3Ga8Rh3,0.0
mp-1105029,Er3Ga9Pt2,0.0
mp-10274,Er3GaC,0.0
mp-1191530,Er3GaCoS7,0.0
mp-1184186,Er3Ge,0.0
mp-1203775,Er3Ge13Ir4,0.0
mp-1203201,Er3Ge13Os4,0.0
mp-1204515,Er3Ge13Rh4,0.0
mp-1198321,Er3Ge13Ru4,0.0
mp-1105754,Er3Ge3Ru2,0.0
mp-1711,Er3Ge4,0.0
mp-1184154,Er3Hg,0.0
mp-1184184,Er3In,0.0
mp-1106153,Er3In5,0.0
mp-10275,Er3InC,0.0
mp-31058,Er3InN,0.0
mp-1189478,Er3Ir,0.0
mp-1196567,Er3Ir2,0.0
mp-1184196,Er3Lu,0.0
mp-1225566,Er3Mg,0.0
mp-1225802,Er3Mn3Ga2Ge,0.0
mp-570867,Er3Mn3Ga2Si,0.0
mp-1191003,Er3MnB7,0.0
mp-1181827,Er3NF10,0.0
mp-1201895,Er3Ni19B10,0.0
mp-17168,Er3Ni7B2,0.0
mp-1213162,Er3NiGe2,0.0
mp-1184205,Er3Np,0.0
mp-1184179,Er3P,0.0
mp-9149,Er3P4Pd7,0.0
mp-1184178,Er3Pb,0.0
mp-20430,Er3PbC,0.0
mp-12545,Er3Pd2,0.0
mp-1104774,Er3Pd4,0.0
mp-1189835,Er3Pt,0.0
mp-1104136,Er3Pt4,0.0
mp-1191966,Er3ReB7,0.0
mp-11437,Er3Rh,0.0
mp-1198715,Er3Rh2,0.0
mp-31198,Er3Ru2,0.0
mp-1201817,Er3Si11Pt23,0.0
mp-1201402,Er3Si13Ir4,0.0
mp-1202967,Er3Si13Os4,0.0
mp-569818,Er3Si3Ni,0.0
mp-1184177,Er3Sn,0.0
mp-1079090,Er3Sn7,0.0
mp-1225523,Er3Th,0.0
mp-21028,Er3TlC,0.0
mp-1213670,Er3TlS6,0.0
mp-1184192,Er3Tm,0.0
mp-31475,Er4(Al8Pt3)3,0.0
mp-772497,Er4(B2O5)3,5.5805000000000025
mp-1204871,Er4(GeO5)3,0.0
mp-1212928,Er4Al,0.0
mp-1225555,Er4AlSi3,0.0
mp-1212833,Er4C7,0.0
mp-1212909,Er4CdIr,0.0
mp-1212924,Er4CdNi,0.0
mp-1212944,Er4CdPd,0.0
mp-1213035,Er4Co,0.0
mp-1225765,Er4Co3,0.0
mp-1202869,Er4CoB13,0.0
mp-1225666,Er4CrS7,0.0
mp-1225648,Er4CrSe7,0.0
mp-1225610,Er4Cu5P7,0.0
mp-1213030,Er4Fe,0.0
mp-1226270,Er4Fe29Si5,0.0
mp-1225867,Er4Fe34C3,0.0
mp-1106190,Er4Ga12Ni,0.0
mp-1181425,Er4Ga12Pd,0.0
mp-1212821,Er4Ga12Pt,0.0
mp-862806,Er4Ga16Co3,0.0
mp-1184507,Er4Ga21Ni10,0.0
mp-1189162,Er4Ge6Ir7,0.0
mp-1189287,Er4Ge6Os7,0.0
mp-1106353,Er4Ge6Rh7,0.0
mp-541637,Er4I5,0.0
mp-13508,Er4In(NiGe2)2,0.0
mp-1196341,Er4In5S13,0.0
mp-567685,Er4InIr,0.0
mp-571107,Er4InRh,0.0
mp-1212959,Er4MgCo,0.0
mp-1212983,Er4MgGe4,0.0
mp-1212947,Er4MgNi,0.0
mp-1212943,Er4MgRh,0.0
mp-1213096,Er4Ni,0.0
mp-28147,Er4Ni13C4,0.0
mp-1206215,Er4Ni2C5,0.0
mp-12052,Er4Sb3,0.0
mp-510706,Er4Si9Ir13,0.0
mp-1225662,Er4SiNi3,0.0
mp-1225684,Er4TaV7B24,0.0
mp-1225602,Er4ThCN4,0.0
mp-1225627,Er4US7,0.0
mp-1199544,Er5(Co2Si7)2,0.0
mp-567517,Er5(CoTe)2,0.0
mp-1203614,Er5(Ge5Ir2)2,0.0
mp-1200777,Er5(Ge5Rh2)2,0.0
mp-1213113,Er5(GeSb)2,0.0
mp-1213169,Er5(In2Pt)2,0.0
mp-1105166,Er5(MoO6)2,0.0
mp-567994,Er5(NiTe)2,0.0
mp-1195957,Er5(Si5Ir2)2,0.0
mp-1213158,Er5(SiSb)2,0.0
mp-1225985,Er5(Sn3Rh)6,0.0
mp-638521,Er5Al3Ni3Ge4,0.0
mp-1181438,Er5BiAu2,0.0
mp-1213208,Er5BiPd2,0.0
mp-31462,Er5BiPt2,0.0
mp-1225819,Er5Co19P12,0.0
mp-510595,Er5CoSb2,0.0
mp-1213285,Er5CuPb3,0.0
mp-1225757,Er5Ga2As,0.0
mp-11368,Er5Ga3,0.0
mp-11854,Er5Ge3,0.0
mp-1105712,Er5Ge3C,0.0
mp-1195860,Er5Ge4,0.0
mp-1189039,Er5In3,0.0
mp-1213219,Er5InNi2,0.0
mp-1201760,Er5Ir3,0.0
mp-1184181,Er5Mg,0.0
mp-2218,Er5Mg24,0.0
mp-1213249,Er5Ni2Bi,0.0
mp-1213207,Er5Ni2Sb,0.0
mp-1225792,Er5P12Ir19,0.0
mp-1200410,Er5P12Ru19,0.0
mp-1195885,Er5Pt4,0.0
mp-1213155,Er5Re2C7,0.0
mp-569915,Er5Rh3,0.0
mp-1095508,Er5S7,0.0
mp-12960,Er5Sb3,0.0
mp-1188308,Er5SbAu2,0.0
mp-1213250,Er5SbPd2,0.0
mp-1213201,Er5SbPt2,0.0
mp-1213244,Er5Si3B,0.0
mp-652550,Er5Si3C,0.0
mp-568446,Er5Si4,0.0
mp-31385,Er5Sn3,0.0
mp-1105965,Er5Tl3,0.0
mp-569804,Er5Zr3(Ni4As3)4,0.0
mp-1225741,Er6Ag(GeS7)2,0.0
mp-1225632,Er6Al2Ge7,0.0
mp-1213348,Er6Al3Si,0.0
mp-1226597,Er6Al41Cr6,0.0
mp-1201665,Er6Al43Cr4,0.0
mp-1213427,Er6Al43V4,0.0
mp-1200512,Er6Al43W4,0.0
mp-1193693,Er6Al7Cu16,0.0
mp-1213336,Er6Co2Sn,0.0
mp-1206841,Er6CoBi2,0.0
mp-1079725,Er6CoTe2,0.0
mp-1206002,Er6FeBi2,0.0
mp-1206054,Er6FeSb2,0.0
mp-1225900,Er6Ga17Pd5,0.0
mp-1189112,Er6GaNi2,0.0
mp-571258,Er6I7,0.0
mp-1213258,Er6InCo2,0.0
mp-1188271,Er6IrI10,0.02280000000000016
mp-1193393,Er6Mn23,0.0
mp-1213481,Er6Mn4Al43,0.0
mp-1205843,Er6MnSb2,0.0
mp-1078859,Er6MnTe2,0.0
mp-1213435,Er6Nb4Al43,0.0
mp-1213480,Er6Ni20As13,0.0
mp-1213358,Er6Ni20P13,0.0
mp-3816,Er6Ni2Sn,0.0
mp-754673,Er6Te2Ru,0.0
mp-1213416,Er6Ti4Al43,0.0
mp-30615,Er6Zn23,0.0
mp-1213175,Er7(AgTe)2,0.0
mp-29914,Er7(NiTe)2,0.0
mp-1190197,Er7(TeAu)2,0.0
mp-1206617,Er7(TeIr)2,0.0
mp-1205487,Er7(TePd)2,0.0
mp-1205780,Er7(TePt)2,0.0
mp-1205489,Er7(TeRh)2,0.0
mp-1213283,Er7Co6Sn23,0.0
mp-1106187,Er7FeI12,0.0
mp-30612,Er7Rh3,0.0
mp-28833,Er7Ru2C11,0.0
mp-1213636,Er8Ni18P11,0.0
mp-1194174,Er9(FeGe)10,0.0
mp-1225712,Er9MnS14,0.0
mp-2621,ErAg,0.0
mp-30339,ErAg2,0.0
mp-1184172,ErAg3,0.0
mp-570026,ErAgGe,0.0
mp-864646,ErAgHg2,0.0
mp-16745,ErAgPb,0.0
mp-1225506,ErAgSn2,0.0
mp-1188739,ErAl,0.0
mp-1208,ErAl2,0.0
mp-31182,ErAl2Ni,0.0
mp-862656,ErAl3,0.0
mp-13490,ErAl3Ni2,0.0
mp-12020,ErAl4Ge2Au,0.0
mp-31183,ErAl4Ni,0.0
mp-16624,ErAl7Au3,0.0
mp-1225641,ErAl7Fe5,0.0
mp-569739,ErAl9(Fe2Si3)2,0.0
mp-977535,ErAlAg2,0.0
mp-1102155,ErAlAu,0.0
mp-1198758,ErAlB14,0.0
mp-1225728,ErAlCo,0.0
mp-1078592,ErAlCu,0.0
mp-1225584,ErAlCu4,0.0
mp-1225649,ErAlFe,0.0
mp-1225490,ErAlGa,0.0
mp-1078826,ErAlNi,0.0
mp-1225548,ErAlNi4,0.0
mp-1102820,ErAlPd,0.0
mp-1102457,ErAlPt,0.0
mp-1206326,ErAlSi,0.0
mp-1072798,ErAlZn,0.0
mp-1688,ErAs,0.0
mp-1184175,ErAs3,0.0
mp-13271,ErAsPd,0.0
mp-1102478,ErAsPt,0.0
mp-11243,ErAu,0.0
mp-2466,ErAu2,0.0
mp-1080756,ErAu3,0.0
mp-1070583,ErAu4,0.0
mp-1104598,ErB12,0.0
mp-1774,ErB2,0.0
mp-1189333,ErB2Os,0.0
mp-6982,ErB2Rh2C,0.0
mp-5678,ErB2Rh3,0.0
mp-1181423,ErB2Ru,0.0
mp-5426,ErB3Mo,0.0
mp-2847,ErB4,0.0
mp-1225576,ErB4(IrRh)2,0.0
mp-13342,ErB4Rh,0.0
mp-1191359,ErB4Ru,0.0
mp-1225493,ErBPtRh2,0.0
mp-3769,ErBRh3,0.0
mp-1193092,ErBe13,0.0
mp-1184148,ErBeO3,0.0
mp-23245,ErBi,0.0
mp-1184182,ErBi3,0.0
mp-1206953,ErBiPd,0.0
mp-30454,ErBiPt,0.0
mp-1205914,ErBiRh,0.0
mp-1579,ErC2,0.0
mp-1203936,ErC8N4Cl7,1.0270000000000001
mp-867,ErCd,0.0
mp-11296,ErCd2,0.0
mp-11760,ErCd2Cu,0.0
mp-7303,ErCd3,0.0
mp-1227922,ErCd6,0.0
mp-977378,ErCdAg2,0.0
mp-1206166,ErCdAu,0.0
mp-1184163,ErCdAu2,0.0
mp-12008,ErCdCu4,0.0
mp-1078684,ErCdGa,0.0
mp-1184161,ErCdHg2,0.0
mp-1225540,ErCdIn,0.0
mp-1072598,ErCdNi4,0.0
mp-863738,ErCdPd2,0.0
mp-1184167,ErCdPt2,0.0
mp-863739,ErCdRh2,0.0
mp-861968,ErCl2,0.0
mp-537,ErCo2,0.0
mp-1225579,ErCo2(B2Rh)2,0.0
mp-411,ErCo3,0.0
mp-5353,ErCo3B2,0.0
mp-1225558,ErCo3Ni2,0.0
mp-1103425,ErCo3Si2,0.0
mp-2740,ErCo5,0.0
mp-1195740,ErCo5P3,0.0
mp-1198238,ErCo5Si3,0.0
mp-1191958,ErCo9Si2,0.0
mp-1213148,ErCo9Si4,0.0
mp-1213100,ErCoB4,0.0
mp-8475,ErCoC,0.0
mp-13501,ErCoC2,0.0
mp-1095692,ErCoGe,0.0
mp-1080067,ErCoGe2,0.0
mp-1225599,ErCoNi,0.0
mp-1225544,ErCoRu,0.0
mp-3128,ErCoSi2,0.0
mp-1205515,ErCoSi3,0.0
mp-11851,ErCoSn,0.0
mp-30913,ErCoSn2,0.0
mp-1206309,ErCr2Si2C,0.0
mp-1024991,ErCu2,0.0
mp-555517,ErCu3Se2ClO8,0.0
mp-1077498,ErCu4Ag,0.0
mp-1077290,ErCu4Au,0.0
mp-1077518,ErCu4Pd,0.0
mp-30579,ErCu5,0.0
mp-1213224,ErCu5Sn,0.0
mp-10993,ErCuAs2,0.0
mp-9390,ErCuGe,0.0
mp-1225545,ErCuNi,0.0
mp-1184157,ErCuO3,0.0
mp-30196,ErCuP2,0.0
mp-1079261,ErCuSb2,0.0
mp-8122,ErCuSi,0.0
mp-1206800,ErCuSn,0.0
mp-474,ErFe2,0.0
mp-1225877,ErFe2Co2B,0.0
mp-1201765,ErFe2H3,0.0
mp-1206739,ErFe2SiC,0.0
mp-569783,ErFe3,0.0
mp-1188611,ErFe4(CuO4)3,0.0
mp-3045,ErFe4B,0.0
mp-1200519,ErFe5P3,0.0
mp-1191434,ErFeB4,0.0
mp-1225620,ErFeCo,0.0
mp-1225569,ErFeCu,0.0
mp-1087539,ErFeGe2,0.0
mp-1225564,ErFeNi,0.0
mp-1225589,ErFeNi4,0.0
mp-1225543,ErFeRu,0.0
mp-1018077,ErGa,0.0
mp-2422,ErGa2,0.0
mp-1225514,ErGa2Cu3,0.0
mp-1025508,ErGa2Ni,0.0
mp-1225816,ErGa2Ni3,0.0
mp-1079745,ErGa2Pd,0.0
mp-398,ErGa3,0.0
mp-1213036,ErGa3Os,0.0
mp-1103943,ErGa3Ru,0.0
mp-1095496,ErGa4Ni,0.0
mp-1025225,ErGa5Co,0.0
mp-1103883,ErGa6,0.0
mp-1225546,ErGaAg,0.0
mp-1225586,ErGaAu,0.0
mp-11433,ErGaCo,0.0
mp-1102196,ErGaIr,0.0
mp-1102207,ErGaNi,0.0
mp-31387,ErGaPd,0.0
mp-1102669,ErGaPt,0.0
mp-1103035,ErGaRh,0.0
mp-863711,ErGaRh2,0.0
mp-2264,ErGe,0.0
mp-513,ErGe3,0.0
mp-12563,ErGeAu,0.0
mp-21153,ErGeIr,0.0
mp-1106394,ErGePd,0.0
mp-20819,ErGePd2,0.0
mp-13579,ErGePt,0.0
mp-20043,ErGeRh,0.0
mp-1213221,ErGeRh2,0.0
mp-19841,ErGeRu,0.0
mp-1007906,ErH,0.0
mp-860971,ErH(SO4)2,5.7570000000000014
mp-24192,ErH2,0.0
mp-24051,ErHCl,0.0
mp-1184155,ErHfIr2,0.0
mp-1184159,ErHfRu2,0.0
mp-2468,ErHg,0.0
mp-866102,ErHg3,0.0
mp-1181794,ErI3O10,0.0
mp-11370,ErIn,0.0
mp-1213359,ErIn2Pd,0.0
mp-1225483,ErIn2Sn,0.0
mp-1291,ErIn3,0.0
mp-12872,ErIn5Co,0.0
mp-1206255,ErIn5Rh,0.0
mp-30340,ErInAg2,0.0
mp-30375,ErInAu,0.0
mp-30376,ErInAu2,0.0
mp-1025066,ErInCo4,0.0
mp-3950,ErInCu,0.0
mp-4552,ErInCu2,0.0
mp-1206262,ErInCu4,0.0
mp-31427,ErInNi,0.0
mp-1024983,ErInNi4,0.0
mp-4508,ErInPd,0.0
mp-11371,ErInPd2,0.0
mp-3526,ErInPt,0.0
mp-1184166,ErInPt2,0.0
mp-1080382,ErInPt4,0.0
mp-3141,ErInRh,0.0
mp-977400,ErInRh2,0.0
mp-2713,ErIr,0.0
mp-1495,ErIr2,0.0
mp-1184162,ErIrO3,0.0
mp-1225723,ErLu(B2Ru)2,0.0
mp-1184202,ErLuCu2,0.0
mp-1184169,ErLuHg2,0.0
mp-977551,ErLuMg2,0.0
mp-1184303,ErLuPd2,0.0
mp-1184345,ErLuRh2,0.0
mp-1184363,ErLuRu2,0.0
mp-1184360,ErLuZn2,0.0
mp-2228,ErMg,0.0
mp-1184227,ErMg2Sc,0.0
mp-862681,ErMg3,0.0
mp-1184255,ErMg5,0.0
mp-1079097,ErMgAg,0.0
mp-1184233,ErMgAg2,0.0
mp-1205975,ErMgAu,0.0
mp-1184216,ErMgAu2,0.0
mp-863672,ErMgCd2,0.0
mp-863674,ErMgHg2,0.0
mp-1205779,ErMgIn,0.0
mp-1079435,ErMgPd,0.0
mp-1184235,ErMgPd2,0.0
mp-1184217,ErMgRh2,0.0
mp-1232164,ErMgS3,0.0
mp-1232145,ErMgSe3,0.0
mp-862993,ErMgSn,0.0
mp-1205770,ErMgTl,0.0
mp-1184238,ErMgTl2,0.0
mp-977433,ErMgZn2,0.0
mp-22482,ErMn12,0.0
mp-11855,ErMn2,0.0
mp-1225633,ErMn2(Fe2Sn3)2,0.0
mp-1213099,ErMn2O3,0.0
mp-1232319,ErMn2O4,0.0
mp-1206340,ErMn2SiC,0.0
mp-1225598,ErMn3(FeSn2)3,0.0
mp-1213040,ErMn4(CuO4)3,0.0
mp-1225626,ErMn4(FeSn3)2,0.0
mp-1225461,ErMnAl,0.0
mp-1190787,ErMnB4,0.0
mp-1225462,ErMnFe,0.0
mp-1225495,ErMnFeO4,0.0
mp-1213023,ErMnGa,0.0
mp-1077334,ErMnNi4,0.0
mp-19217,ErMnO3,0.0
mp-19738,ErMnSi,0.0
mp-1197296,ErMnSn2,0.0
mp-1188769,ErMoC2,0.0
mp-1213215,ErNbO2,0.0
mp-866026,ErNbOs2,0.0
mp-867919,ErNbRu2,0.0
mp-567314,ErNi,0.0
mp-1939,ErNi2,0.0
mp-6098,ErNi2B2C,0.0
mp-1051,ErNi3,0.0
mp-570035,ErNi3Ge2,0.0
mp-853,ErNi5,0.0
mp-31130,ErNi7B3,0.0
mp-1212933,ErNiAs,0.0
mp-27895,ErNiB4,0.0
mp-1078704,ErNiBC,0.0
mp-11723,ErNiC2,0.0
mp-20676,ErNiGe,0.0
mp-582572,ErNiGe2,0.0
mp-1078854,ErNiGe3,0.0
mp-18983,ErNiO3,0.0
mp-1103423,ErNiP,0.0
mp-1213066,ErNiPb,0.0
mp-1196661,ErNiSn2,0.0
mp-1212981,ErNiSn4,0.0
mp-1184412,ErNp3,0.0
mp-1184211,ErO,0.0
mp-1206338,ErO2,0.0
mp-1184334,ErOs3,0.0
mp-1144,ErP,0.0
mp-1205587,ErPRu2C,0.0
mp-1184331,ErPa3,0.0
mp-1184323,ErPaOs2,0.0
mp-867918,ErPaRu2,0.0
mp-863734,ErPaTc2,0.0
mp-388,ErPb3,0.0
mp-851,ErPd,0.0
mp-1062078,ErPd2,0.0
mp-1206593,ErPd2Pb,0.0
mp-2825,ErPd3,0.0
mp-1189243,ErPd3S4,0.0
mp-1079880,ErPdPb,0.0
mp-1025444,ErPt,0.0
mp-480,ErPt2,0.0
mp-1913,ErPt3,0.0
mp-1025030,ErPt5,0.0
mp-1006258,ErPu3,0.0
mp-1102143,ErRe2,0.0
mp-1205882,ErRe2SiC,0.0
mp-1190444,ErReB4,0.0
mp-2381,ErRh,0.0
mp-1762,ErRh2,0.0
mp-863735,ErRh2Pb,0.0
mp-568727,ErRh3C,0.0
mp-1805,ErRh5,0.0
mp-1206911,ErRu3C,0.0
mp-1623,ErS,0.0
mp-1207375,ErSBr,0.02280000000000016
mp-2191,ErSb,0.0
mp-1018159,ErSb2,0.0
mp-1184274,ErSb3,0.0
mp-1213011,ErSbIr,0.0
mp-1213025,ErSbRh,0.0
mp-1184223,ErScRu2,0.0
mp-1184239,ErScZn2,0.0
mp-2491,ErSe,0.0
mp-378,ErSi,0.0
mp-1077267,ErSi2,0.0
mp-12382,ErSi2Ni,0.0
mp-8535,ErSi2Rh3,0.0
mp-12386,ErSi3Ni,0.0
mp-15307,ErSi3Rh5,0.0
mp-1084844,ErSiAg,0.0
mp-20733,ErSiIr,0.0
mp-1213005,ErSiNi,0.0
mp-1225459,ErSiNi3,0.0
mp-1206269,ErSiOs2C,0.0
mp-3352,ErSiPd2,0.0
mp-1102879,ErSiPt,0.0
mp-22114,ErSiRh,0.03829999999999957
mp-1213010,ErSiRh2,0.0
mp-22247,ErSiRu,0.0
mp-1205505,ErSiRu2C,0.0
mp-30613,ErSn2,0.0
mp-11372,ErSn3,0.0
mp-1071492,ErSnGe,0.0
mp-1078876,ErSnIr,0.0
mp-1079874,ErSnPd,0.0
mp-5850,ErSnPd2,0.0
mp-1079826,ErSnPt,0.0
mp-30611,ErSnPt2,0.0
mp-31298,ErSnRh,0.0
mp-862931,ErSnRh2,0.0
mp-866285,ErSnRu2,0.0
mp-984707,ErTa3,0.0
mp-1184204,ErTaO3,0.0
mp-866299,ErTaOs2,0.0
mp-863679,ErTaRu2,0.0
mp-1095604,ErTc2,0.0
mp-1018692,ErTe2,0.0
mp-1078991,ErTe3,0.0
mp-1225448,ErTh,0.0
mp-1225387,ErThCN,0.0
mp-1226123,ErThFe14B,0.0
mp-1225488,ErThRe4,0.0
mp-1184246,ErThRu2,0.0
mp-863681,ErThTc2,0.0
mp-1225513,ErTiFe11C,0.0
mp-4743,ErTiGe,0.0
mp-756296,ErTiO3,0.0
mp-20918,ErTiSi,0.0
mp-1054,ErTl,0.0
mp-2431,ErTl3,0.0
mp-1184219,ErTlO3,0.0
mp-1184208,ErTlRh2,0.0
mp-1018688,ErTlZn,0.0
mp-1184302,ErTm3,0.0
mp-1184253,ErTmAg2,0.0
mp-1184284,ErTmCd2,0.0
mp-1184262,ErTmCu2,0.0
mp-1184249,ErTmHg2,0.0
mp-1184271,ErTmIn2,0.0
mp-1184240,ErTmMg2,0.0
mp-1184248,ErTmPd2,0.0
mp-1184242,ErTmRu2,0.0
mp-1184245,ErTmTl2,0.0
mp-1184251,ErTmZn2,0.0
mp-1184350,ErU,0.0
mp-552802,ErU2S3O2,0.0
mp-1225410,ErUN2,0.0
mp-1225444,ErUTe4,0.0
mp-1225699,ErUTe6,0.0
mp-1225484,ErV2Fe10N,0.0
mp-10983,ErVB4,0.0
mp-1212989,ErVO2,0.0
mp-1188587,ErWC2,0.0
mp-1660,ErZn,0.0
mp-1025096,ErZn2,0.0
mp-1188367,ErZn3,0.0
mp-569927,ErZn5,0.0
mp-1018694,ErZnGa,0.0
mp-1212934,ErZnGe,0.0
mp-1018689,ErZnIn,0.0
mp-1078524,ErZnNi,0.0
mp-1184207,ErZnO3,0.0
mp-1079852,ErZnPd,0.0
mp-1102795,ErZnPt,0.0
mp-1212903,ErZnRh,0.0
mp-977538,ErZnRh2,0.0
mp-1212948,ErZnSn,0.0
mp-1225381,ErZr,0.0
mp-1184237,ErZrRu2,0.0
mp-5848,ErZrSb,0.0
mp-1078223,Eu(Ag2Sb)2,0.0
mp-1206337,Eu(AgGe)2,0.0
mp-567527,Eu(Al10V)2,0.0
mp-1104923,Eu(Al2Cu)4,0.0
mp-569200,Eu(Al2Fe)4,0.0
mp-13485,Eu(AlAu)2,0.0
mp-20867,Eu(AlGa)2,0.0
mp-20151,Eu(AlGe)2,0.0
mp-20595,Eu(AlSi)2,0.0
mp-1069444,Eu(AsPd)2,0.0
mp-1078722,Eu(AsPt)2,0.0
mp-638841,Eu(AsRh)2,0.0
mp-4050,Eu(AsRu)2,0.0
mp-1079886,Eu(BC)2,0.0
mp-20578,Eu(BIr)4,0.03829999999999957
mp-22248,Eu(BO2)3,0.0
mp-1199986,Eu(BRu)4,0.0
mp-1080767,Eu(BiPd)2,0.0
mp-637267,Eu(C2N3)3,0.0
mp-1070314,Eu(CdAs)2,0.0
mp-22609,Eu(CdP)2,0.0
mp-19774,Eu(CdSb)2,0.0
mp-627640,Eu(ClO4)3,0.0
mp-570456,Eu(CoAs)2,0.0
mp-1206612,Eu(CoGe)2,0.0
mp-20038,Eu(CoP)2,0.0
mp-672294,Eu(CoSi)2,0.0
mp-1068248,Eu(CrAs)2,0.0
mp-10442,Eu(Cu2As)2,0.0
mp-574507,Eu(Cu2Sn)2,0.0
mp-3557,Eu(CuGe)2,0.0
mp-9418,Eu(CuO2)2,0.0
mp-3412,Eu(CuSi)2,0.0
mp-1069357,Eu(CuSn)2,0.0
mp-645690,Eu(DySe2)2,0.0
mp-20890,Eu(FeAs)2,0.0
mp-20095,Eu(FeP)2,0.0
mp-20856,Eu(FeP3)4,0.0
mp-582357,Eu(FeSi)2,0.0
mp-1225812,Eu(GaGe2)2,0.0
mp-945228,Eu(GaSb)2,0.0
mp-1103807,Eu(GaTe2)2,0.0
mp-1184807,Eu(Ge3Pt)4,0.0
mp-1068398,Eu(GeAu)2,0.0
mp-570058,Eu(GeIr)2,0.0
mp-1080180,Eu(GePt)2,0.0
mp-626981,Eu(GeRh)2,0.0
mp-21417,Eu(GeRu)2,0.0
mp-625467,Eu(HO)3,0.0
mp-556079,Eu(IO3)3,0.0
mp-1103870,Eu(In2Ag)4,0.0
mp-1192981,Eu(In2Au)2,0.0
mp-1194923,Eu(In4Ir)2,0.0
mp-608777,Eu(InAs)2,0.0
mp-606777,Eu(InAu)3,0.0
mp-645692,Eu(LuSe2)2,0.0
mp-1183991,Eu(Mg4Al3)4,0.0
mp-1006146,Eu(MgBi)2,0.0
mp-1212857,Eu(MgGa)2,0.0
mp-613838,Eu(MgGe)3,0.0
mp-643738,Eu(MgH3)2,0.0
mp-1206478,Eu(MgP)2,0.0
mp-582736,Eu(MgSb)2,0.0
mp-20128,Eu(MnAs)2,0.0
mp-672298,Eu(MnGe)2,0.0
mp-21474,Eu(MnP)2,0.0
mp-582227,Eu(MnSb)2,0.0
mp-3627,Eu(Mo3S4)2,0.0
mp-1104114,Eu(Mo3Se4)2,0.0
mp-1019733,Eu(NO3)3,0.0
mp-580731,Eu(Ni2B)6,0.0
mp-695771,Eu(Ni3S4)2,0.0
mp-6992,Eu(NiAs)2,0.0
mp-3333,Eu(NiGe)2,0.0
mp-3758,Eu(NiP)2,0.0
mp-570308,Eu(NiSb)2,0.0
mp-1188524,Eu(P3Ru)4,0.0
mp-1213012,Eu(PO3)3,0.0
mp-20802,Eu(POs)2,0.0
mp-581754,Eu(PPd)2,0.0
mp-8582,Eu(PRh)2,0.0
mp-22788,Eu(PRu)2,0.0
mp-640956,Eu(Sb3Os)4,0.0
mp-20855,Eu(Sb3Ru)4,0.0
mp-504900,Eu(SbPd)2,0.0
mp-607044,Eu(ScSe2)2,0.0
mp-22653,Eu(SiAg)2,0.0
mp-21229,Eu(SiAu)2,0.0
mp-21849,Eu(SiIr)2,0.0
mp-4768,Eu(SiNi)2,0.0
mp-20115,Eu(SiPd)2,0.0
mp-1076931,Eu(SiPt)2,0.0
mp-21383,Eu(SiRh)2,0.0
mp-581736,Eu(SiRu)2,0.0
mp-1079406,Eu(SnPd)2,0.0
mp-1017559,Eu(ZnAs)2,0.0
mp-1069383,Eu(ZnP)2,0.0
mp-1069042,Eu(ZnSb)2,0.0
mp-22133,Eu(ZnSi)2,0.0
mp-13135,Eu(ZnSn)2,0.0
mp-1204179,Eu10Mn6Sb13,0.0
mp-1194247,Eu11(ZnAs2)6,0.0
mp-1193786,Eu11(ZnSb2)6,0.0
mp-1227931,Eu16Sb11,0.0
mp-1225828,Eu2(AlAg)5,0.0
mp-1190659,Eu2(AlAu2)3,0.0
mp-1213181,Eu2(AsPt)3,0.0
mp-1225966,Eu2(CuNi)5,0.0
mp-645591,Eu2(Ga3Rh)3,0.0
mp-562708,Eu2(MoO4)3,0.0
mp-1225527,Eu2(ZnNi)5,0.0
mp-1099927,Eu2Ag2O5,0.0
mp-1183891,Eu2AgAu,0.0
mp-1183883,Eu2AgBi,0.0
mp-1183896,Eu2AgGe,0.0
mp-1183893,Eu2AgHg,0.0
mp-1184199,Eu2AgPb,0.0
mp-1183902,Eu2AgPd,0.0
mp-1183904,Eu2AgPt,0.0
mp-1183909,Eu2AgRh,0.0
mp-1183942,Eu2AgSb,0.0
mp-1183890,Eu2AgSn,0.0
mp-861959,Eu2Al2O5,0.0
mp-1225429,Eu2Al3Ag,0.0
mp-1225452,Eu2Al3Ga,0.0
mp-771815,Eu2Al4O9,0.0
mp-1225642,Eu2Al6Si3Au2,0.0
mp-1025206,Eu2AlNO3,0.0
mp-1225411,Eu2AlP3Pt7,0.0
mp-1183928,Eu2As2O5,0.0
mp-1213423,Eu2As3,0.0
mp-1225431,Eu2As3Pt,0.0
mp-1226033,Eu2As7Pd12,0.0
mp-1183880,Eu2AsAu,0.0
mp-1213631,Eu2B4O9,0.0
mp-570529,Eu2B4Rh5,0.0
mp-582389,Eu2B5Os3,0.0
mp-1212955,Eu2Be2SiO7,0.0
mp-1183887,Eu2BiAu,0.0
mp-1193935,Eu2BiS4,0.0
mp-1206213,Eu2Br2F,0.0
mp-605786,Eu2BrO2,0.0
mp-22234,Eu2C(NO)2,0.0
mp-1104962,Eu2Cd2As3,0.0
mp-1183877,Eu2CdGa,0.0
mp-1183885,Eu2CdGe,0.0
mp-1183915,Eu2CdHg,0.0
mp-1183962,Eu2CdPb,0.0
mp-1183888,Eu2CdSn,0.0
mp-1207289,Eu2Cl2F,0.0
mp-1191681,Eu2Co12P7,0.0
mp-1076123,Eu2Co2O5,0.0
mp-1225466,Eu2Co4Si3Ge,0.0
mp-1225561,Eu2Co5Ge3,0.0
mp-770606,Eu2CoO4,0.0
mp-1213003,Eu2CoPtO6,0.0
mp-1213340,Eu2CoRuO6,0.0
mp-1199416,Eu2CoSi3O10,0.0
mp-1190438,Eu2CoTe2(SO7)2,0.0
mp-1076286,Eu2Cr2O5,0.0
mp-1213273,Eu2Cu(GeO4)2,0.0
mp-1099765,Eu2Cu2O5,0.0
mp-1225406,Eu2Cu4Si3Ge,0.0
mp-1103514,Eu2Cu6P5,0.0
mp-1194919,Eu2CuH4(SO6)2,0.0
mp-1183898,Eu2CuIr,0.0
mp-1183906,Eu2CuRh,0.0
mp-1192020,Eu2CuS3,0.0
mp-1212968,Eu2CuSe2O,0.0
mp-1225340,Eu2CuTe4,0.0
mp-1225377,Eu2FeP3Pt7,0.0
mp-1225440,Eu2FeSbO7,0.0
mp-1184040,Eu2Ga2O5,0.0
mp-609413,Eu2Ga3Ir,0.0
mp-1225364,Eu2Ga7Ag,0.0
mp-1225457,Eu2GaAg3,0.0
mp-1183895,Eu2GaHg,0.0
mp-1095642,Eu2Ge,0.0
mp-1019739,Eu2Ge(BO4)2,0.0
mp-22828,Eu2Ge2O7,0.0
mp-628758,Eu2Ge2Se5,0.0
mp-1102390,Eu2Ge3Au,0.0
mp-648448,Eu2GeO5,0.0
mp-1203361,Eu2H16S3O20,0.0
mp-1205815,Eu2H6Ir,0.0
mp-1206586,Eu2HCl2,0.0
mp-1213558,Eu2Hf2(MoO4)7,0.0
mp-1191195,Eu2Hf2O7,0.0
mp-1183879,Eu2HgBi,0.0
mp-867299,Eu2HgGe,0.0
mp-1212953,Eu2HgO4,0.0
mp-1183882,Eu2HgSb,0.0
mp-558258,Eu2I2O,0.0
mp-1095519,Eu2In,0.0
mp-1184056,Eu2InHg,0.0
mp-1095160,Eu2InPd2,0.0
mp-1095035,Eu2InPt2,0.0
mp-641683,Eu2Ir2O7,0.0