task_id,pretty_formula,band_gap
mp-850366,Li3MnFe2(BO3)3,2.7882
mp-850372,Li2MnFe(BO3)2,2.6835000000000004
mp-850399,LiVPHO5,2.2039
mp-850403,LiFePH2O5,3.3735
mp-850404,Li2FeO2F,1.8875
mp-850406,Mn8O13F3,0.0036000000000000476
mp-850409,Fe2OF3,1.5199
mp-850410,Li2Mn3(BO3)3,0.6674000000000002
mp-612405,Fe3O4,0.5393000000000003
mp-623058,Ti2Ag2P2S11,0.6694999999999998
mp-623087,Re3(TeBr)7,1.1555
mp-623382,BaFe2(P2O7)2,2.3725
mp-623590,RbV2SeO7,2.0099
mp-623854,NaNb3O8,2.4842
mp-623862,Rb3Tm2Cu4Br13,1.9138
mp-623984,PbSO4,3.8567
mp-624200,Re3Se4Br,1.4421000000000004
mp-624214,Cs3Bi2I9,2.3423
mp-624218,P3SN4Cl5O,2.6121000000000003
mp-624234,TePb2O5,2.1305
mp-624397,SiC,1.9959999999999989
mp-624399,CdI2,2.3414
mp-624400,CdI2,2.3318000000000003
mp-624406,CdI2,2.3339
mp-624417,CdI2,2.3365
mp-624418,CdI2,2.3295000000000003
mp-624688,Ta2O5,2.4693000000000005
mp-624689,V2O5,1.439
mp-624691,VAgO3,1.9192
mp-625087,U(HO2)2,1.9023
mp-625104,H2CO2,2.9173
mp-625105,H2CO2,3.1602
mp-625152,AlHO2,5.546000000000001
mp-656887,Ni3O4,0.3815
mp-675562,K2ThF6,6.6619
mp-675569,KPF6,7.1053
mp-675606,Li5AuO4,2.1316
mp-675638,Pr2PbS4,2.0295000000000005
mp-675668,Yb(PrS2)2,2.015
mp-675672,Zr5Sc2O13,3.647
mp-675678,Nd4Ag2Se7,1.5042
mp-675680,Sr(SbO3)2,1.3549000000000002
mp-675710,K2U2O7,1.6176
mp-675724,BiTeO4,2.1729000000000003
mp-675756,Ba3P4O13,1.6969999999999998
mp-675757,Ba2As6O11,1.7849000000000004
mp-675758,Sr2LaF7,4.8865
mp-675759,Tm10Ti6O27,1.7110999999999996
mp-675784,H(CO)2,2.8385
mp-675797,Zn7(SbO6)2,0.6033
mp-675813,Sm2Th3O9,2.8338
mp-675857,Cd2SnO4,0.22040000000000012
mp-675871,ErPaO4,3.199
mp-675881,RbBiF4,3.4703
mp-675893,HoPaO4,3.2059
mp-675946,Li2MgBr4,3.7295
mp-675989,Tl9BiSe6,0.7462999999999997
mp-676014,NaAl11O17,4.4125000000000005
mp-714883,MoO2,0.7749000000000001
mp-714911,V3O5,1.0233999999999996
mp-714931,VO2,1.2524000000000002
mp-714932,V5O9,0.7569999999999997
mp-714944,VO2,1.0677
mp-714969,MoO2,1.3853999999999995
mp-715035,VO2,0.7988
mp-715276,Fe2O3,1.4248000000000005
mp-715438,Fe3O4,0.5663999999999998
mp-715457,V4O7,0.3683000000000001
mp-715463,MoO3,1.6795999999999998
mp-715474,MoO3,0.5050000000000001
mp-715482,MoO2,1.0274
mp-715493,V4O7,1.0034999999999998
mp-715514,V2O3,0.5625999999999998
mp-715553,VO2,0.7758000000000003
mp-715557,W3O8,0.7279
mp-715574,MoO3,0.7662
mp-715664,V4O9,0.8147
mp-756908,Li3SbO3,3.2818
mp-756909,TlGaO3,0.2334000000000005
mp-756922,Ho2SO2,2.8694000000000006
mp-756933,TaTlO3,0.44579999999999975
mp-756942,Ba3(BrO)2,2.2005000000000003
mp-756978,Ba3(ClO)2,2.3347
mp-756979,Rb3ClO,0.6579000000000002
mp-757038,LiSiBiO4,3.6392
mp-757048,LiTi(SiO3)2,0.08079999999999997
mp-757053,LiNb(PO3)4,0.2745999999999995
mp-757070,BaCaI4,3.0154
mp-757076,SnP2O7,3.8735
mp-758006,Ca2SiO4,4.1639
mp-758031,Li4Sn(PO3)6,4.2261
mp-758056,LiTi(PO3)4,0.2504
mp-758063,LiTiP2O7,0.2824
mp-758070,LiCu2PO4,0.31989999999999963
mp-758086,LiSn(PO3)3,4.1888
mp-758096,SbOF3,1.9231
mp-758100,LiCuPO4,0.3805999999999998
mp-758103,YH2(CO3)2,3.4584
mp-758115,Li2SnP2O7,4.0435
mp-758134,Li2AgF5,0.1600999999999999
mp-758140,LiTi(PO3)4,0.19759999999999955
mp-758145,LiTiP2O7,0.09889999999999954
mp-758147,LiCu(PO3)3,0.5284
mp-758151,Li3Ti(PO4)2,0.22889999999999944
mp-758168,NaZn2HSe2O7,3.7644
mp-758201,LiTiP2O7,0.21780000000000044
mp-758218,LiTiP2O7,0.1742000000000008
mp-763256,LiCoSiO4,1.5904
mp-763260,LiCoSiO4,1.3669
mp-763265,Ni(PO3)3,0.04720000000000002
mp-763266,Li2CrO4,2.8805
mp-763267,V3OF11,2.1723000000000003
mp-763282,Li4VP2O9,3.4929
mp-763287,Co3OF5,1.1396
mp-763290,V3(O2F)2,0.6421999999999999
mp-763291,V3O5F,0.7991999999999999
mp-763292,Ti3Mn3(SbO8)2,0.6120999999999999
mp-763299,Ni3OF5,0.8414
mp-763300,LiFeO2,1.6202000000000003
mp-763302,LiVPO5,1.5742
mp-763304,Li2CoSiO4,2.9941999999999998
mp-763312,Li4CoO4,1.2373
mp-763315,Co2OF3,0.6955
mp-763317,LiVGeO5,1.9325
mp-763319,V3O5F,0.04710000000000037
mp-763320,V3OF11,1.5229999999999997
mp-763328,Co4OF11,0.6344
mp-763331,LiMn2F5,3.0768
mp-763333,Li3V2(O2F)2,0.7083999999999999
mp-763336,Li2Cr3CoO8,0.6141000000000001
mp-763337,Li3Mn2F7,3.6254
mp-763343,Li2VO2F,1.3732000000000002
mp-763344,LiV3O8,1.1302
mp-763345,Li2VO2F,1.1166
mp-763352,V(CO3)2,1.3027
mp-765873,LiV2F5,2.2602
mp-765876,MnCo3O8,1.0108
mp-765881,LiFeSi3O8,3.1855
mp-765882,LiNi(PO3)3,3.8064
mp-765895,LiVF5,2.1274
mp-765898,Li3TiMn3O8,0.9693
mp-765900,Ti6Co3O16,0.7956000000000001
mp-765907,LiMnF5,1.5013999999999998
mp-765910,LiFePO4,3.4131
mp-765912,Ti(CoO3)2,1.2312
mp-765913,LiFePO4,3.6846
mp-765914,LiV(OF)2,2.6762
mp-765915,LiFe(SiO3)2,3.0559000000000003
mp-765916,Ti2CoO5,1.7405
mp-765917,LiV2OF5,1.842
mp-765918,LiV2OF5,1.7128
mp-765920,Li5FeO3F,2.6118
mp-765921,MnF4,0.03469999999999995
mp-765923,Mn2F7,0.21229999999999996
mp-765932,VF5,3.1961
mp-765933,Li2V2O5F2,2.1426
mp-765934,Li2FeP2O7,3.6668
mp-765935,Li2Co4OF8,2.749
mp-765936,Co3NiO8,1.1465
mp-765938,LiVF6,3.3314
mp-765939,MnF3,1.3373
mp-765940,LiV(OF)2,2.5283
mp-765941,Mn2F7,1.8053
mp-765942,Li2VOF4,2.6315
mp-765950,LiFePO4,3.5322000000000005
mp-765957,Li6V2O5F2,1.2773
mp-765959,NaPH3C2N3O4,4.5922
mp-765961,LiFeSi3O8,3.1436
mp-765963,LiFePO4,3.1187
mp-765965,LiNi(PO3)4,1.0499
mp-765974,LiFePO4,3.3409000000000004
mp-769965,Li2Cr3CuO8,0.2200000000000002
mp-769968,VGeO3,0.012400000000000409
mp-769969,TaFeO4,1.8831999999999995
mp-769970,ScFeO3,1.0123000000000002
mp-769972,Li2FePCO7,2.4432
mp-769974,Li2Cr3CoO8,0.5115000000000001
mp-769976,Li2FePCO7,2.5029
mp-769977,Li3CrFe3O8,0.6441999999999997
mp-769982,Li5Fe2P2(CO7)2,1.1784
mp-769983,Li2CrFeO4,1.7079999999999995
mp-769984,Li4AlCr3O8,3.1048
mp-769987,LiCoBO3,2.5817
mp-769996,Li4CrFe3O8,1.6734000000000004
mp-769997,La2Ti3O9,3.781
mp-769998,Li2CrFeO4,1.9856
mp-770004,Ni5(TeO6)2,0.20219999999999996
mp-770006,Al2CrO5,0.6760999999999995
mp-770007,LiCoBO3,2.7586000000000004
mp-770010,LiCrB2O5,2.1903000000000006
mp-770011,Rb5FeO4,1.2902
mp-770012,Li2MnPCO7,0.4656
mp-770013,Li2CrFeO4,1.9762
mp-770016,LiVBO4,1.4280000000000002
mp-770020,Li2CrFeO4,1.6838000000000006
mp-770022,LiVBO4,2.6883000000000004
mp-770027,Na5LiMn2P2(CO7)2,3.2957
mp-770028,LiVBO4,1.8254
mp-770030,Li4Cr3GaO8,3.0366
mp-770032,Li2CrFeO4,1.9519
mp-770038,Li2VBO4,2.0451
mp-770042,Li2CrFeO4,2.1398
mp-770046,Li4Cr3NiO8,0.3233999999999999
mp-770051,Li4AlCr3O8,3.1125
mp-773203,Li4CrO5,1.3709000000000002
mp-773205,LiMnB2O5,1.011
mp-773216,Li2MnCSO7,3.9814
mp-773218,V2FeO6,1.7192
mp-773240,MnO2,0.8822000000000001
mp-773241,Na3NiPCO7,3.6486
mp-773243,Li4VFe3O8,1.3735000000000002
mp-773245,TiMn3O8,1.3715000000000002
mp-773252,Li2(NiO2)3,0.4941
mp-773253,Li2MnSnO4,0.8182
mp-773263,MnFe(PO4)2,0.7701
mp-773265,Li4TiCo3O8,0.9867
mp-773269,MnFe3(PO4)4,1.0888000000000002
mp-773272,AlCoO3,0.8609
mp-777488,Li3FeF6,3.9812
mp-777489,LiFeF3,3.0799
mp-777494,VOF2,1.5961
mp-777498,Ti3CrNi2(PO4)6,0.04949999999999921
mp-777501,V2O3F,1.0937
mp-777503,TmCrO3,2.5329
mp-777504,Co6OF11,0.6333
mp-777514,Y2O3,2.8014
mp-777525,LiFeF4,3.2287000000000003
mp-777527,LiV6O7F5,1.0399000000000005
mp-777528,Li3VF6,2.4757
mp-777529,Li2VF6,1.9224
mp-777531,Ti3Nb2Cr3O16,0.8117999999999999
mp-777550,LiFeF4,3.6935
mp-777551,LiVF3,2.6788
mp-777552,Fe6O5F7,1.1215000000000002
mp-777557,TiFe3Sn2(PO4)6,0.09609999999999984
mp-777559,LiFeF4,3.1787
mp-777563,Ta2H15N6Cl7,2.1923
mp-777566,LiVF4,2.1702
mp-777567,LiFeF4,4.2363
mp-777580,V5O12,1.1948
mp-777588,Li2FeF4,3.478
mp-777622,LiFeF3,3.3346
mp-777627,LiCr(PO3)4,2.5340000000000003
mp-777658,Li3V4(OF3)3,1.2987000000000002
mp-777660,Li3Fe9O5F11,1.6456000000000002
mp-777664,Li2FeF4,3.0891
mp-777669,Li2FeF4,3.3555
mp-850427,LiMnPH2O5,3.037100000000001
mp-850443,LiV2OF5,1.6473999999999998
mp-850484,LiVPO4,2.575
mp-850486,LiVP2O7,2.5161
mp-850493,P4WO12,2.9507
mp-850494,LiFe2C2O7,1.0272
mp-850511,LiFeO2,1.8933
mp-850512,LiVP2HO8,1.1978
mp-850739,Fe3OF5,1.4469
mp-850746,Fe4O3F5,1.2903000000000002
mp-850747,LiFe2P2HO8,3.2551
mp-850751,LiVP2(HO4)2,2.0338000000000003
mp-850757,Fe3OF5,1.5957
mp-850760,Li2MnSi4O11,1.3703
mp-850761,Li2MnFe(BO3)2,3.148
mp-850814,NaSbO2,2.7691
mp-850864,Ho2TiO5,3.1512
mp-850876,VOF3,2.9217
mp-850882,Li2Cr(PO3)5,1.6743
mp-850898,LiMn2(BO3)2,0.022599999999999957
mp-625154,H8PtO6,1.6174000000000002
mp-625172,H3ClO5,4.7936000000000005
mp-625174,H5IO6,2.2527
mp-625181,Cu(HO)2,0.04059999999999997
mp-625184,Sr(HO)2,3.9730000000000003
mp-628633,Se2SN2Cl,1.4569
mp-630528,InS,0.4394
mp-630641,Sr2FeClO3,1.1226000000000005
mp-630714,Mg(FeO2)2,0.9806
mp-632657,ZrNCl,3.0337
mp-632684,NaPH3NO3,5.1072
mp-632724,ReH8(NCl3)2,1.0107000000000002
mp-634105,HBr,2.4347000000000003
mp-636598,Rb2ZnBr4,3.6771
mp-638749,Te3(PdBr)4,0.6621000000000001
mp-639558,SiO2,5.704700000000001
mp-676145,Lu(HO)3,3.2310000000000003
mp-676154,Yb(DyS2)2,2.1483000000000003
mp-676275,Nd2Pb5F16,4.1182
mp-676360,NaNdS2,2.02
mp-676512,Na3AlF6,6.555999999999999
mp-676643,Ba2NF,0.4005000000000001
mp-676673,NaClO2,2.2793
mp-680048,RbW3Br7,2.6942
mp-680180,K3Co(CN)6,4.1343999999999985
mp-680204,SiO2,5.6081
mp-680222,SiO2,5.5951
mp-680277,Re2C9S3O8,2.2827
mp-680403,K2In3AgSe6,0.9771999999999998
mp-680415,Os3C10(BrO5)2,0.5450999999999999
mp-680424,AlPO4,3.543
mp-680460,Rb2Cd2(SO4)3,2.5197
mp-680486,W6CCl16,0.4016000000000002
mp-680493,K3Co(CN)6,3.8399
mp-680555,TlGaSe2,1.2542999999999995
mp-680579,ZnC2(SN)2,3.7233
mp-680674,Cs3Bi2Br9,2.6141
mp-680772,Sb5IO7,1.2704000000000004
mp-680836,Ta4Te9I4O,0.38119999999999976
mp-682284,Zn3In2O6,0.6833
mp-720244,NaCaMgAl(SiO3)4,2.5873000000000004
mp-720295,UH10N2O7,2.4049
mp-720379,K3NaP4(H2O7)2,4.5405000000000015
mp-722988,TeP4H26(NO5)4,3.5395
mp-729903,ZnInH14O7F5,4.1099
mp-733489,SbHC2NCl11,1.9922
mp-733838,PH5N2O3,2.3806000000000003
mp-733998,TbH12S2NO12,5.1568000000000005
mp-734266,SmH12(NO5)3,2.2389
mp-734299,Ce2H16S3O20,1.2367
mp-734561,Rb3P3(HO3)4,1.084
mp-735491,CaMg2H24(ClO2)6,0.2079
mp-735512,CrH17N4Cl2O3,3.7042
mp-735520,Ca2MnFeSi4(HO3)5,0.9706
mp-735584,Rb2FeH2C5(N3O)2,2.7814
mp-735603,CaH16C4N8(ClO2)2,1.0128
mp-736225,Sr2Re4H16C3(N2O7)3,3.2622
mp-736261,Sb4H8C2S7N,1.2202000000000002
mp-758240,LiTi(PO3)4,0.2269000000000001
mp-758243,TiNb2O7,1.3475
mp-758281,RbB2P2HO9,5.7824
mp-758302,LiAgF2,1.4668
mp-758329,YbCO3,4.696000000000001
mp-758715,Li2CuSiO4,0.5165000000000002
mp-758997,LiCuCO3,1.4634
mp-759287,LiCu2PO4,0.21689999999999987
mp-759711,LiCuCO3,1.364
mp-759734,Li3Bi2(PO4)3,3.5359000000000003
mp-759743,Sb5O7F,3.1066
mp-759838,NaSn2(PO4)3,3.2886
mp-759874,LiCu(PO3)2,1.2797999999999998
mp-759878,RbMgH12(ClO2)3,4.8651
mp-759883,BiOF,2.9652000000000003
mp-759962,PH5NO3F,5.3482
mp-759981,NaCu(PO3)3,0.4566000000000001
mp-760059,Bi5O7F,2.7263
mp-760078,Ba4Ti11O26,2.7188
mp-760134,NbSb3O8,1.8179
mp-760170,Sn13(O5F3)2,2.0053
mp-760332,Sb6O5F8,2.9281
mp-760509,LiCuCO3,1.1411999999999995
mp-763357,LiP2WO8,2.494
mp-763358,Fe4OF7,0.8345
mp-763360,Li2Co2(SiO3)3,2.8418
mp-763362,LiMnF3,3.383
mp-763367,LiP2WO7,3.4961
mp-763371,LiFe2(CO3)4,0.07040000000000002
mp-763387,Li2Ni(CO3)2,2.9454
mp-763422,Li2MnF4,4.0357
mp-763482,VPO5,2.2703
mp-763495,LiMnF3,2.4534
mp-763497,LiV(PO3)3,2.604
mp-763559,Li2V(PO4)2,1.3999
mp-763648,LiV2(CO3)4,1.2619
mp-763658,Li3V(PO4)2,2.2363
mp-763723,Li6MnV3(PO4)6,1.0054000000000003
mp-763725,MnAl2P2(HO)18,4.0877
mp-763742,Li2FePO4F,3.7155
mp-763776,LiFe3P3O11,3.1618
mp-763804,LiV3O8,1.3464
mp-763826,V12PbO30,0.7913999999999999
mp-763846,LiMnPH2O5,3.3891
mp-763858,Ta2MnO6,1.9697
mp-765977,Li2Ni(PO3)5,0.1663
mp-765978,Li2MnOF3,1.3204
mp-765996,LiMn2O2F3,0.6333
mp-766015,SbOF,3.5122
mp-766021,KH(IO3)2,3.508
mp-766154,VF5,3.3142
mp-766155,LiMnPO4,3.6114
mp-766156,LiV3(OF3)2,1.7441
mp-766158,VF4,2.7245
mp-766734,LiMnPO4,3.2264
mp-766862,Li2VF6,1.9304
mp-766885,Sb3PO7,2.2365
mp-766906,LiVF4,2.1007
mp-766979,Sn4P2O9,2.9112
mp-767070,LiLa5Ti8O24,2.1172000000000004
mp-770062,NaVSiO4,1.9759
mp-770064,LiMnPCO7,0.9788
mp-770065,Gd2TiO5,3.1629
mp-770084,Li2AlNiO4,1.815
mp-770094,Y2V2O7,0.4868999999999999
mp-770103,LiAlVO4,1.7409999999999999
mp-770105,Li5MnO4,1.0329
mp-770183,Li2AlVO4,2.1692
mp-770193,Li2CrFeO4,1.6617000000000002
mp-770394,Na5Fe2P2(CO7)2,1.4136000000000002
mp-770398,NiSnO3,1.7717
mp-770494,LaMgI5,2.5769
mp-770516,Tb2(WO4)3,4.7329
mp-770602,TiVO3,0.6252999999999993
mp-770643,GeWO4,3.9397
mp-773317,LiFe5O8,1.0312999999999994
mp-773340,Li2TiMnO4,0.3901000000000003
mp-773359,Li2VCoO4,1.3384
mp-773365,Mn3CrO8,0.7605
mp-773455,V2SnO7,2.6054000000000004
mp-773468,LiFeSiO4,1.3112999999999997
mp-773503,V2CrO7,0.6215
mp-773602,MnCo3O8,0.888
mp-773725,NaLi5Mn2P2(CO7)2,3.5250000000000004
mp-773726,Na2LiMnPCO7,3.5033000000000003
mp-773735,NaLi5Fe2P2(CO7)2,4.0232
mp-773743,NaLi2MnPCO7,3.5254
mp-773755,Na3Li3Mn2P2(CO7)2,3.5651
mp-773773,Na5LiMn2P2(CO7)2,3.3086
mp-773802,NaLi2MnPCO7,3.5422
mp-773811,NaLi2FePCO7,3.8463
mp-773817,Sn2N2O,0.006999999999999672
mp-773830,Sn2N2O,0.04240000000000066
mp-773831,Sn2N2O,0.06409999999999982
mp-773931,NaLi5Mn2P2(CO7)2,3.5999000000000003
mp-773933,Ta2WO8,1.7921
mp-773940,Na2LiFePCO7,3.6665
mp-773941,Na5LiMn2P2(CO7)2,3.3174
mp-773953,Ba2LaCl7,4.4004
mp-774003,VRhO4,0.11759999999999947
mp-774421,Li3Fe8(BO3)8,1.6997
mp-774579,LiTi2(PO4)3,2.5642
mp-777672,LiFeF3,3.0807
mp-777680,Li2VF5,2.447
mp-777702,LiMnF3,3.7722
mp-777720,Li2VO2F,1.4806999999999997
mp-777778,Li2VO2F,1.7347
mp-777785,LiFeF4,2.9978
mp-777843,Ge2N2O,2.3947000000000003
mp-777858,VO2,0.2394999999999996
mp-777875,LiFeF4,3.5689
mp-777887,Li3VF5,2.5404
mp-777888,LiFeF3,3.2689
mp-777894,LiVF3,2.5428
mp-777899,LiFeF3,3.2798000000000003
mp-777913,Li2VO2F,1.0852
mp-778554,Li2MnF4,3.8539
mp-778565,Li2AlFeO4,3.0568
mp-778568,V2O3F,1.1504
mp-778827,LiMn2(BO3)2,0.5357000000000001
mp-778832,Li3Mn4(BO3)4,0.4781
mp-778857,Li5Mn8(BO3)8,0.1593
mp-778861,LiV2OF5,1.1189000000000002
mp-778862,Li8MnFe7(BO3)8,3.1051
mp-778866,Li4Mn3Fe(BO3)4,2.997
mp-778879,LiV2OF5,1.0131
mp-778884,LiFeBO3,2.6202000000000005
mp-778892,Li8MnFe7(BO3)8,3.1706000000000003
mp-778897,Li2MnFe(BO3)2,3.0498000000000003
mp-779015,SmHIClO13,0.13069999999999998
mp-779062,Li3V4(OF3)3,1.1483
mp-779098,Li3MnV(PO4)3,0.7543000000000002
mp-779099,Li2MnFe(BO3)2,3.0795000000000003
mp-779104,Rb4PbO4,1.5876
mp-779194,Li5V6O5F19,0.7836
mp-779197,Li4Mn3Fe(BO3)4,3.0094000000000003
mp-779204,LiFeP3H8O13,3.9819999999999993
mp-779205,Li3V4(OF3)3,0.9322999999999996
mp-779207,Li6MnV3(PO4)6,0.6322999999999999
mp-779212,V6O5F19,2.0808
mp-850946,LiVOF4,2.1572
mp-850978,VFeO4,1.7642
mp-853231,LiFeOF2,1.5590000000000002
mp-861891,SeBr2,0.8221
mp-861898,Rb3GePSe7,1.5629
mp-862605,Rb4Zr6CCl18,1.2652
mp-862664,Rb2Zr2O5,1.692
mp-863062,LiSiBiO4,3.4051
mp-863430,Zn3In2O6,0.6580000000000004
mp-863852,Li5Fe5Si7O24,2.3908
mp-863908,Sc7V9O24,1.6829
mp-864675,Yb3N2,0.34030000000000005
mp-865466,TiH8(NF3)2,4.6829
mp-865716,YbCl2,5.3972
mp-865956,IrCl3,0.7277
mp-866506,CaSn2S5,1.2572
mp-866869,Ca3Sn2S7,1.7828000000000004
mp-1017533,YN,0.2144000000000004
mp-1017539,ZnO,0.448
mp-1017549,Ca(BH)2,0.01860000000000017
mp-1017550,Be3N2,4.246
mp-1017555,CsBeF3,5.5947
mp-1017566,GePbO3,0.20690000000000008
mp-375,UO3,1.6163
mp-5663,BaCeO3,2.3080000000000003
mp-5893,CaSiO3,3.4515
mp-623782,EuAg,0.08219999999999983
mp-640883,VBi(PbO3)2,2.6739999999999995
mp-640917,SiO2,0.6553999999999998
mp-641112,ReO2F3,3.2953
mp-641191,U2Tl2Mo3O16,2.3226
mp-641661,XeF6,2.5833
mp-642227,Sb8Pb5S17,1.4318
mp-642284,CsVSO6,2.4242
mp-642363,Al2O3,4.271699999999999
mp-642735,Rb2H4Pt,3.2877
mp-642807,TbH2Br,1.6981999999999997
mp-642938,RbCr4BiO14,2.2292
mp-643004,SrMg2FeH8,1.7242999999999995
mp-643013,ZrP2(HO3)2,4.1284
mp-643154,Li3V2(PO4)3,2.0608
mp-643246,YbMgNiH4,1.9048
mp-643293,SrMgNiH4,1.8124
mp-649754,Os3C9Se2O9,2.3869
mp-649878,Sn(S4I)4,0.9752
mp-650049,SbC(N3Cl2)3,1.8341
mp-650178,Se5SO3F,1.3992
mp-650538,W2C7Br4O7,1.8225
mp-651231,Te2Ru4(CO)11,1.7386
mp-651707,SiO2,5.696000000000001
mp-652048,OsC4ClO4,2.4779
mp-683598,PWC5Br3O5,2.0011
mp-683957,Nd4CuTe5(ClO5)3,1.489
mp-684021,Sn4Sb6S13,0.6013999999999999
mp-684022,LaTlGeSe4,1.2985000000000002
mp-684265,Mg2Al4Si5O18,4.3459
mp-684427,LiSb(PO3)4,4.5289
mp-684497,LiBi(PO3)4,4.6449
mp-684668,CaC2,2.8514
mp-684696,BaNa4Ti2Si10(BO15)2,3.0028
mp-684810,BaSm5Al3Si9N20O,2.766
mp-684990,Al2O3,3.1115
mp-685070,Zr19O40,0.03730000000000011
mp-685090,Ga2O3,0.005800000000000249
mp-685136,BiF3,5.0761
mp-685150,PbF2,4.3707
mp-685370,Y2Ti2O7,2.7269
mp-685633,Y10U4O27,1.6892999999999998
mp-685862,Tm10Ti6O27,1.9487
mp-685863,Li4SiO4,4.6647
mp-685928,Rb5Tc3S7,1.1198
mp-685982,MgIn2O4,1.2218
mp-685995,Ta6Pb4O19,0.5510000000000002
mp-686019,Y2Ti2O7,2.5848000000000004
mp-686028,Sr6Nb2O11,3.1448
mp-686055,Sr3Pr4O9,2.3406
mp-686084,Nb12I21Br,0.0961000000000003
mp-686308,Na6Ga5Si7H15O32,0.8365999999999998
mp-686464,Ca10P6SO24,3.7466
mp-686467,Sr14La6Mg3Ti17O60,1.8643
mp-686543,NaSm9Si6(SO12)2,3.0660000000000003
mp-686572,NaPr9Si6(SO12)2,3.1215
mp-686677,Rb2PH3SeO8,3.94
mp-686833,Sr7LaCu4(BiO3)8,0.6090000000000004
mp-687091,Rb2U2Mo3O16,2.3517
mp-688785,Al2NiO4,3.1049999999999995
mp-736581,Zn4P3H10C2NO13,3.7043
mp-738624,SmP2H9O11,5.0568
mp-738663,Sn2H10C4N2O9F2,2.4831
mp-738680,ZrH27C8N2Cl5O2,3.926
mp-738707,SiPH18C6INCl,2.7535
mp-740696,TeH18(Br3O4)2,1.9245
mp-740717,LiH4SNO4,5.2707
mp-740736,NaP3H10(NO5)2,5.0566
mp-743605,ZrCrCu2(PO4)3,0.9956
mp-743636,NaNiP2HO7,4.2632
mp-743660,FeHO2,1.8957
mp-746343,NiH44C12N8(ClO5)2,4.6971
mp-746662,NiH44C12(N5O8)2,3.1460000000000004
mp-746791,FeH10S2NO11,0.04289999999999994
mp-752419,SrCaI4,3.4701000000000004
mp-752443,Te(S2O7)2,3.3237
mp-752451,Zn(CuO2)2,0.6286999999999998
mp-752549,LiAgF2,1.7748
mp-752711,BaSr2I6,3.2551999999999994
mp-760790,LiCuF4,0.0039000000000002366
mp-761344,Li2VP2O7,2.5889
mp-761353,P4WO13,1.9875
mp-761361,VSnO4,1.6367000000000005
mp-761379,Li3V(PO4)2,1.7241000000000004
mp-761393,LiP4WO13,2.0451
mp-761417,Li2Mn2Si4O11,3.3347
mp-761428,Li3Fe8(BO3)8,1.2724000000000002
mp-761841,Li2SnP2O7,3.466
mp-761869,Sr3Li3La5O12,3.0223000000000004
mp-761935,Li3V3P8O29,1.2578
mp-764045,Li3Mn(PO4)2,0.9068
mp-764049,V6O5F19,2.2316
mp-764093,Li5Ni2(PO4)3,4.0388
mp-764125,Li4Mn2(PO4)3,0.8595999999999999
mp-764139,Li3V3P8O29,1.2772
mp-764154,LiCo2OF3,2.0181
mp-764190,NiP4O11,4.5253
mp-767114,SnP4O11,4.4386
mp-767140,Sn2P2O7,3.0579999999999994
mp-767265,V(Bi5O8)5,1.8282
mp-767276,Li5Fe5Si7O24,1.8272
mp-767316,Li3MnPCO7,3.5059
mp-767323,V6F13,0.02740000000000009
mp-767332,LiCoPO4,2.9865
mp-767427,LiFe2(BO3)2,1.4577000000000002
mp-767432,Sr16V8O31,0.43359999999999976
mp-767435,P3(WO6)2,2.0989
mp-770716,Rb5FeO4,1.0088
mp-770737,Ga2WO6,1.7670999999999997
mp-770749,Li2Ti(BO3)2,2.8806
mp-770751,CrPO5,1.7458
mp-770811,Si2As2O7,4.5533
mp-770862,Li2Cr2O7,2.4529
mp-770864,Li5Fe2P2(CO7)2,1.4098
mp-770872,Li2Cr2O7,2.4046000000000003
mp-770909,CrCo3O8,0.3754
mp-770944,Li4Co2C4SO16,0.06580000000000008
mp-770984,Li3MnV(PO4)3,0.001400000000000068
mp-770997,Li2HfO3,4.1189
mp-771305,Li24Ti5Cr7O36,1.2212
mp-771321,Cs4GeO4,2.5359
mp-771328,Rb4PbO4,1.7342000000000002
mp-771358,Li24Ti5Cr7O36,1.2258999999999998
mp-771365,Li24Ti5Cr7O36,1.1757999999999995
mp-771367,Li24Ti7Cr5O36,1.2928000000000002
mp-771369,LiMnBO3,2.1548
mp-771379,LiCrBO3,1.5389
mp-771380,Rb2Fe4O7,1.7212
mp-771386,VBO4,2.6343
mp-774721,Li5La3Nb2O12,3.4594
mp-774742,Li3Sc2(PO4)3,4.6105
mp-774868,ZnP4O11,4.627
mp-774950,Li2V3CoO8,0.7871000000000001
mp-774994,Li5Fe8(BO3)8,1.6197
mp-775021,NaLi3Fe4(SiO3)8,2.6744
mp-775103,V4(OF3)3,1.4002
mp-775113,NaMnO2,1.2883
mp-775187,LiFe8(BO3)8,1.3581000000000003
mp-775236,LiMnO2,1.1504
mp-775238,LiFe2(BO3)2,1.475
mp-775256,Li4MnV3(P2O7)4,0.34939999999999993
mp-775280,Li5Fe8(BO3)8,1.4565
mp-775322,Li5Fe8(BO3)8,1.4954
mp-775331,LiVO2,1.0526
mp-779269,LiMnF5,1.3083999999999998
mp-779318,LiCr2P3O13,1.0714
mp-779337,Li5V6O5F19,1.1397
mp-779344,Mn12O7F17,0.09499999999999996
mp-779366,LiCr(PO3)4,2.6061
mp-779373,Li8Mn3Fe5(BO3)8,3.1010000000000004
mp-779381,Li8MnFe7(BO3)8,3.1457999999999995
mp-779382,Li3V4(OF3)3,0.9921
mp-779403,Li4Mn3Fe(BO3)4,2.9967
mp-779405,Li3V4(OF3)3,1.3969999999999998
mp-779407,Li6MnV3(PO4)6,0.4740000000000002
mp-779435,Ga3NO3,0.0009000000000001228
mp-779545,Na3CuO2,1.7218999999999998
mp-779551,Ba4Br6O,3.3563
mp-779738,Hf2N2O,2.0681000000000003
mp-779739,Hf2N2O,2.1027000000000005