task_id,pretty_formula,band_gap
mp-776816,Li2FeF5,3.6655
mp-776911,MgO,3.4257
mp-778058,Li2FeF5,3.7173
mp-778705,Fe2OF3,1.632
mp-779539,Li2CuPO4,1.2121999999999993
mp-781712,Na2SnO2,2.4072
mp-782714,LiV2(OF)3,0.9438999999999996
mp-793783,Na5Fe2P2(CO7)2,1.2134
mp-8084,NaNb6O15F,1.5654999999999997
mp-849219,V3(O2F)2,0.4965000000000002
mp-849244,Li2FeOF3,1.9779
mp-849318,Na2FeO2,0.6480999999999999
mp-850922,Li3Fe2(SiO4)2,1.854
mp-861182,Li4TiS4,2.4707
mp-866580,Ca2SnS4,0.8649000000000004
mp-866943,Ca2SnS4,1.6421
mp-9064,RbTe,0.4281999999999999
mp-974650,Re2S2O13,2.3709
mp-979932,Sr3SiO5,3.7464
mp-985584,Na3PS4,2.2776
mp-9897,Te3As2,0.25620000000000065
mp-600000,SiO2,5.4117
mp-600001,SiO2,5.4910000000000005
mp-600002,SiO2,5.4577
mp-600005,SiO2,5.4398
mp-604315,Zn(BH4)2,4.2519
mp-604498,NdTl(MoO4)2,3.5665000000000004
mp-605843,K4CO4,2.3811
mp-625663,ScHO2,4.4857
mp-625718,Y(HO)3,3.8645
mp-625886,Ta2H4O7,2.8627
mp-625941,Te(HO)6,1.9116
mp-626113,H4N2O3,2.7379
mp-626120,V3H5O8,1.2561999999999998
mp-626151,YHO2,4.0468
mp-626169,U(HO2)2,1.8923
mp-626182,SbHO3,1.0685
mp-626193,Sc(HO)3,5.0212
mp-626194,Sc(HO)3,4.8709
mp-626218,SbHO3,1.1867
mp-626412,In(HO)3,2.7719000000000005
mp-626497,Al(HO)3,4.6972999999999985
mp-626512,FeHO2,1.9234
mp-626787,VHO2,1.5267999999999995
mp-626791,VHO2,1.4847
mp-626885,U(HO2)2,1.8953
mp-627151,Zr(MoO4)2,3.105
mp-643579,SbH3OF6,4.6548
mp-643651,Rb3ZnH5,3.2933000000000003
mp-643697,Rb3MnH5,1.6939000000000002
mp-643712,Rb3MgH5,3.0455
mp-643902,SnH4(NF)2,3.1067
mp-644318,NaV3H6(SO7)2,2.063
mp-644330,H8C3N2O,1.7439
mp-644424,Sr2CoO3,0.5811
mp-644741,In2O3,0.11219999999999963
mp-645124,ZnWO4,2.1359
mp-645159,FeBiO3,1.5185000000000004
mp-645218,Tb3BWO9,3.7934
mp-645303,Cs4CO4,0.7968000000000002
mp-645317,Li4CO4,5.307
mp-655105,K2Pb(SO4)2,2.5256
mp-695799,KP(HO2)2,5.332999999999999
mp-696353,Al6C3N2,0.30159999999999965
mp-696529,Al5HO8,4.3283000000000005
mp-696701,HPbClO,3.3026
mp-696740,CaCO3,1.5162000000000004
mp-696804,RbHS,3.0784
mp-697144,RbH2N,1.8985
mp-697451,ZnP2(HO)4,4.1184
mp-699136,NaAlH2CO5,5.0440000000000005
mp-753656,SbOF,2.9618999999999995
mp-753677,Li3BiS3,2.5580000000000003
mp-753683,Sn2OF2,2.2466
mp-753708,TiOF,0.05730000000000057
mp-753737,Li3CuS2,1.981
mp-753741,Li3CuS2,1.9031
mp-753747,Ta3O7F,2.2236
mp-753783,Li5InO4,2.6407000000000003
mp-753802,Sc2Ti2O7,3.5775
mp-753823,CeTh3O8,1.7800000000000002
mp-753826,LiCuS,1.0759999999999996
mp-753864,Sr2Li2Nb4O13,1.4216
mp-753868,SbOF,3.5531000000000006
mp-753912,CaTb2O4,3.119
mp-753958,GdAsO4,2.6976000000000004
mp-753995,YTmO3,4.582000000000002
mp-754004,TmHO2,4.5627
mp-754073,Lu2TiO5,3.0518000000000005
mp-754107,Y(BiO2)3,2.0380000000000003
mp-754140,CaSeO3,4.1407
mp-754145,TbLuO3,4.6811
mp-754177,CaGd2O4,2.4804
mp-754192,Tm2TiO5,3.0448000000000004
mp-754196,Ba2SrI6,3.6619
mp-754203,SmErO3,4.6071
mp-754208,ErInO3,2.5532
mp-754218,Tb2SeO2,2.1367000000000003
mp-754225,YbTiO3,2.3173
mp-754239,ScGaO3,4.0845
mp-754262,Zn2As2O7,1.7632
mp-754266,Li8TiS6,1.0393
mp-754283,HoHO2,4.522500000000001
mp-754341,Ho2TeO6,3.1026
mp-754358,ZnSeO4,1.8189
mp-754359,Y6TeO12,2.7254
mp-754368,NaSbO2,1.461
mp-754370,Ba3GeO5,2.7592
mp-754381,Zr3N4,0.5628999999999995
mp-754409,HoBO3,5.0979
mp-754429,CaTm2O4,3.3401
mp-754434,Hf3N4,1.0903999999999998
mp-754435,LuAlO3,5.0767
mp-754444,Zn(AgO2)2,0.2388
mp-754455,Sc2O3,4.053
mp-754469,Er2TeO2,0.5423999999999998
mp-754472,HoCuO2,2.5410000000000004
mp-754475,Tm2SeO2,1.9537
mp-754478,HfZrO4,3.4356
mp-754517,SrCa2I6,3.7364
mp-754541,TmTlO2,1.3081
mp-754556,Nb3N5,0.6958000000000002
mp-754614,LuNbO4,3.2766
mp-757715,Tb(BiO2)3,2.6510000000000002
mp-757953,ThNb4O12,1.3104
mp-761487,Li3Cr(PO4)2,2.8493999999999997
mp-761517,Li4MnSi2O7,3.2934000000000005
mp-761613,LiVSiO4,1.7435999999999998
mp-761663,Li2CoP2O7,3.2618
mp-761674,Li2Co3SbO8,0.5583
mp-763006,LiMnF4,0.4745
mp-763013,Fe2OF3,1.3916
mp-763015,LiMnF4,1.6022
mp-763037,Fe4O3F5,1.5695
mp-763045,Fe4OF7,0.7312999999999998
mp-763048,V2OF5,0.7114
mp-763052,Fe2OF3,0.9197999999999996
mp-763096,VO2F,1.9056
mp-763100,LiMnF4,2.4813
mp-763101,LiMnF3,3.5423
mp-763104,Li2MnF4,3.5855
mp-764565,Na2MnO3,1.4256000000000002
mp-764632,VOF3,2.2201000000000004
mp-765138,Li2Co(CO3)2,2.1374
mp-765157,LiVF3,2.426
mp-765172,Fe3(OF)2,1.0278999999999998
mp-765195,WO2F,1.6359
mp-765229,V2F7,1.7368
mp-765237,VF4,2.2356
mp-765255,LiV2O3F,1.4350999999999998
mp-765356,Li2VF6,1.9723
mp-767915,Li2SiNiO4,3.3558000000000003
mp-768005,LiNiSnO4,0.4621999999999997
mp-768007,Li2Fe(CO3)2,3.4101
mp-768025,LiNiPO4,3.6784
mp-768030,FeOF,1.7423999999999995
mp-768031,MnOF,0.3766999999999998
mp-768032,VOF,1.4409
mp-768037,VOF,1.5799
mp-768039,CrOF,1.4562
mp-768048,Li4VCr3O8,1.9197
mp-768054,Li4V3CrO8,0.9635000000000002
mp-768055,Li2VCrO4,1.7173999999999996
mp-768063,V2P2O7,2.6343000000000005
mp-768147,Dy(ClO4)3,4.9878
mp-768241,Dy2Ge2O7,3.8473
mp-768419,La(ClO4)3,3.9271
mp-768422,TmHO2,4.8302
mp-768450,Tm3Sb5O12,3.1089
mp-768469,TmGaO3,2.922
mp-768702,Ta2Zn4O9,2.9471
mp-768770,Mg(ReO4)2,3.8744
mp-768864,KNdO2,3.8044
mp-771123,ScFeO3,0.9040000000000004
mp-771176,Li2CoSnO4,1.7159000000000004
mp-771199,V3FeO8,0.3901999999999997
mp-771247,CoTeO4,0.7254
mp-771855,CoTeO4,0.9034999999999996
mp-771856,MnVO4,0.5005
mp-771867,Ti3VO8,1.5775
mp-771919,LiFeO2,0.3056000000000001
mp-771926,LiFeSbO4,1.2033000000000005
mp-771977,TmAsO4,3.5505
mp-774302,TiMn3O8,1.7216
mp-774304,Li2V3WO8,1.7313000000000005
mp-776018,SrTiO3,1.7362000000000002
mp-776039,NaMnBO3,2.5243
mp-776104,K2O,0.8928999999999999
mp-776115,Li2NbFe3O8,1.2802
mp-776138,LiFeF3,3.3048
mp-776150,ScAgO3,0.3578999999999999
mp-776184,V3NiO8,0.6743999999999999
mp-776189,LiFeF3,3.3132
mp-776205,Hf2N2O,1.3758
mp-776233,Li2Fe3SbO8,1.3362000000000005
mp-776235,Zr2N2O,0.07620000000000005
mp-776344,V2O5,2.7539
mp-776366,LiFeF4,4.0775000000000015
mp-776404,ZrO2,3.4628999999999994
mp-776439,SmTmO3,4.6315
mp-778001,Tm(ClO4)3,5.0743
mp-778052,Sm2TeO6,3.0283
mp-778277,Li2Ti3FeO8,1.3264999999999998
mp-778344,Li2MnF4,3.3279
mp-778345,Li2FeF5,3.4609
mp-778347,LiFeF4,3.103
mp-778409,LiVF4,2.0654
mp-778510,LiFeF4,3.1302
mp-778539,Li2CoBO4,0.9599000000000002
mp-778548,Li2FeF4,3.8539
mp-780882,LiMnPH2O5,3.0580000000000003
mp-780913,Na2VO3,1.8482000000000005
mp-780919,LiMnF4,2.0565
mp-780926,Li2VPO5,1.0671
mp-780929,LiMnF4,0.6541
mp-780932,Li2MnSiO4,2.9335
mp-781065,Fe2OF3,1.2831
mp-849246,Ti2CdO5,2.5113
mp-849271,AgIO3,1.9765
mp-849352,V3CrO8,0.04780000000000007
mp-849354,TiV3O8,0.4220999999999999
mp-849357,Co6OF11,0.5509
mp-849371,CdSnO3,0.6903999999999999
mp-849404,Na3FeO4,0.14390000000000006
mp-849465,Mn6OF11,0.06289999999999996
mp-849493,Li2FeF4,3.7024
mp-849570,Li2V3SbO8,2.0776000000000003
mp-849597,V2O5,2.4105
mp-607031,V2PbO6,2.2564999999999995
mp-607436,ReCl3O2,1.8464
mp-607711,NdNO4,1.1368
mp-608071,NO2,0.8807000000000003
mp-608439,Pb2O3,1.0516000000000003
mp-608769,Hf(MoO4)2,2.3165
mp-610517,Ag2S,0.9945
mp-610738,Zr(InBr3)2,2.3857
mp-647557,ZrPbO3,2.8468
mp-647987,RbBiC4(SN)4,2.5596
mp-647999,Nb2Cd2O7,1.7049999999999996
mp-648745,NaTiFeO4,1.9788
mp-649253,NbClF8,3.263
mp-649492,V2PbO6,2.3433
mp-649595,CaMgSiO4,4.6952
mp-649619,As3Pb5ClO9,2.0202
mp-649722,NaAlSiO4,2.7676
mp-703275,NaSr3NdTi5O15,1.9141
mp-703295,SrH2I2O,3.6429
mp-703343,Li2Sn(H5O4)2,4.0087
mp-703517,NaMgPH12O11,0.3180000000000001
mp-703527,H2CN2,4.8561
mp-703673,YbVO3,0.3999999999999999
mp-704220,FePO4,2.4351
mp-704240,CoPO4,0.4474
mp-754621,Sm2Ge2O7,3.8174
mp-754624,Al2O3,5.667699999999999
mp-754646,Dy2Ge2O7,2.9711
mp-754658,TeO3,1.2489
mp-754668,Hf3N2O3,3.2509
mp-754672,TiO2,2.9809
mp-754701,CaTiO3,3.5706
mp-754745,Na2SnO3,2.4741000000000004
mp-754759,Y2O3,4.4468
mp-754761,Sr2HfO4,3.8680000000000003
mp-754768,Tb2Pt2O7,1.3893
mp-754769,TiO2,2.2943
mp-754777,NaLaO2,3.9188
mp-754787,SmTlO3,0.8895
mp-754790,Ti3N2O3,1.5473
mp-754794,La2S2O,2.1692
mp-754808,La2MgO4,2.4898
mp-754815,YBr3,3.9765
mp-754818,NaTaO3,2.7139
mp-754827,Tm2TeO2,0.41440000000000055
mp-754834,Er2TeO2,0.4964000000000004
mp-754835,Na6CuO4,0.30889999999999995
mp-754848,Na2SnO3,2.3772
mp-754857,Nb2Ge2O7,1.524
mp-754869,Sr(IO3)2,3.8321
mp-754876,SmAsO4,3.8516
mp-754903,Y(BO2)3,5.446999999999999
mp-754933,SmTlO2,1.7153999999999998
mp-754936,DyAlO3,5.166
mp-754942,SrSm2O4,3.5881
mp-754964,HfZrO4,4.071999999999999
mp-754969,TmBrO,4.3469
mp-754971,Cs3TmO3,2.267
mp-754976,Cs2BeO2,2.7782
mp-754991,Ga3NO3,1.4853999999999998
mp-755001,Er2TeO6,2.4523
mp-755009,Ba4OF6,3.6833
mp-755015,NaLaO2,3.6668
mp-755049,Li3Cu3(PO4)2,0.8020000000000005
mp-755054,Ti3N2O3,1.4486999999999997
mp-755056,CaPbI4,2.628
mp-755060,Cs2O,0.2724000000000002
mp-755072,Na2O,1.0298
mp-755082,Sr3(AsO4)2,3.786
mp-755084,Na6MgO4,1.9734
mp-755376,Er2TeO6,3.0329
mp-755399,Li2CuSnO4,0.2328000000000001
mp-755403,Ba2Sc2O5,3.2206
mp-761683,Na4TiO4,3.2426
mp-761698,Mn3CoO8,0.2109
mp-761702,LiCoPO4,2.4138
mp-761709,LiCoPO4,2.8138
mp-761719,LiCoPO4,2.8051
mp-761726,LiCoPO4,2.8316
mp-761727,LiCoPO4,3.1147
mp-761729,Li2VCo3O8,0.38180000000000014
mp-761741,LiCoSbO4,1.4278999999999995
mp-761744,LiCoPO4,2.8761
mp-761752,LiVCoO4,1.9367
mp-761753,LiCoPO4,2.6359000000000004
mp-761763,Li2FeCo3O8,0.4297
mp-761780,LiCoPO4,2.6112
mp-761810,VNi3Sb2(PO4)6,0.002700000000000369
mp-761815,LiCoPO4,2.5609
mp-761818,LiCoPO4,2.9618
mp-761827,Na3CuO3,1.1698
mp-764667,Co3(OF2)2,0.08219999999999983
mp-764668,Fe4OF7,0.8031999999999999
mp-764670,Li2MnFe(PO4)2,3.7336
mp-764682,LiVOF3,2.0851
mp-764685,LiVOF3,2.2221
mp-764687,LiVOF3,1.2543
mp-764689,VOF,1.0086
mp-764705,Li2V(OF)2,1.3206
mp-764706,Li5VO4F,1.1479
mp-764710,Li3VO3F,1.9941
mp-764712,Li2VF4,2.6486
mp-764717,Li2MnF6,2.9997
mp-764718,Li3(FeO2)4,0.2439
mp-764721,LiVOF3,1.9123
mp-764724,Li4VO3F2,1.6585
mp-764731,Li2NiO2F,0.7791999999999999
mp-764744,V2OF5,1.7698
mp-764745,Fe4OF7,1.8526
mp-765445,Li2VF4,2.4348
mp-765446,LiCoPO4,2.9922
mp-768887,Y(BO2)3,5.245
mp-768889,YHoO3,3.0775
mp-768890,Li4B2O5,4.8277
mp-768906,YBrO,4.4876000000000005
mp-768908,Ho2TeO2,0.5862000000000007
mp-768920,Ho2(SeO3)3,4.5173
mp-768941,Sr3TeO6,3.0317
mp-768950,Sn2(SO4)3,2.5934
mp-768988,Li4Bi2O5,2.7704
mp-769007,YScO3,3.1406
mp-769016,Pb(BrO3)2,3.2535000000000003
mp-769026,Li2BiO3,1.3006000000000002
mp-769028,Si3Sb2O9,4.1105
mp-769039,Dy2TeO6,3.0392
mp-769048,Li3NbS4,2.0896
mp-769173,PrOF,4.437099999999999
mp-769187,Sn5P6O25,2.5557
mp-769210,Tb2Pb2O7,1.0930999999999995
mp-769211,Tb2Pb2O7,0.9557000000000002
mp-769228,Cs5YO4,1.6241
mp-769253,Dy2SeO2,2.0746999999999995
mp-769565,Na2VPCO7,2.1699
mp-769571,Ba2Ta2O7,2.9228999999999994
mp-772012,LiFePO4,3.5669
mp-772049,Li2Ti2O5,3.7604
mp-772053,ZrMnO3,3.2405000000000004
mp-772082,CaLaI5,2.1073000000000004
mp-772086,Ba4Sn3O10,2.7238
mp-772098,Sm(ClO4)3,4.9264
mp-772125,NbPO5,2.9960000000000004
mp-772126,Li4Fe(PO4)2,4.2067000000000005
mp-772181,Cs3GaO3,2.1903
mp-772187,AlGaO3,3.1117000000000004
mp-772191,Tm2TeO6,3.0533
mp-772199,Rb3ClO,0.6094999999999999
mp-772218,Ti2Ni(PO5)2,2.9552000000000005
mp-772222,TmClO,5.0946
mp-772231,RbCrO2,2.7996
mp-772238,V2SiO7,2.4434
mp-772242,LiVPO5,3.1420000000000003
mp-772244,Li2TiFeO4,0.8302999999999998
mp-772247,LiNbNiO4,1.6159999999999997
mp-772250,Li8FeO6,0.3605999999999999
mp-772265,MnPO4,0.9055
mp-772283,Li2Cr3SbO8,1.9309000000000005
mp-772295,TmClO,4.5259
mp-772296,ZnCrO4,2.1911
mp-772456,Li2Mn3CuO8,0.1080000000000001
mp-776466,Ba2Ti6N2O11,2.1391
mp-776490,Al2O3,5.4415
mp-776493,LiVF4,2.4243
mp-776494,LiVF4,2.0631
mp-776495,LiFeF4,3.6927
mp-776509,Sr2Ti6N2O11,1.9036
mp-776512,MgCoO3,0.16229999999999967
mp-776526,Cr2O3,2.3438
mp-776593,LuScO3,4.4786
mp-776608,Ca2Ti6N2O11,2.2672000000000003
mp-776616,LiV2F7,2.2743
mp-776621,LiVF4,2.0836
mp-776622,LiV2F7,2.1015
mp-776623,LiV2F7,2.1377
mp-776624,LiVF4,2.3709
mp-776626,LiVF4,2.4317
mp-776629,LiVF4,2.4102
mp-776630,V2O3,0.9127999999999998
mp-776642,Li2Fe3F8,3.1268
mp-776644,Ti3Mn3(SnO8)2,1.2040000000000002
mp-776646,Na3CoO3,1.5319999999999998
mp-776648,Li2Fe3F8,3.1211
mp-776653,Ni6OF11,0.5564000000000001
mp-776654,Li7V5O12,1.1547
mp-776675,Ti3Co2Te(PO4)6,0.4925999999999999
mp-776679,LiVF4,1.4987
mp-776688,V2O3,1.2369000000000003
mp-781634,HfZrO4,3.8824
mp-781646,Tb2TiO5,3.1633
mp-781686,Co3(OF2)2,0.3735999999999999
mp-781689,Co2OF3,0.6197
mp-781699,Li2MnCr3O8,0.5804
mp-781737,FeOF,1.7539
mp-781740,Li2V3CrO8,0.6137000000000001
mp-781761,Li2FeF4,3.6637
mp-781772,Li2Mn3VO8,0.3821999999999997
mp-781783,Fe6OF11,1.8698
mp-781864,LiCu2F5,0.4978999999999998
mp-781966,Co6O5F7,0.3749
mp-781976,Li2CuF5,0.4593999999999998
mp-782005,Li6TeO6,3.1117
mp-782035,Al2O3,4.662399999999999
mp-782634,VFe5(PO4)6,1.3117000000000003
mp-783905,NaV2O4,0.9135999999999996
mp-611316,AsN(OF3)2,2.6593
mp-611608,CsNiF3,4.3878
mp-611630,CaFeClO2,0.3702000000000001
mp-613235,CoSO4,1.8571
mp-613620,Rh2O3,0.5675999999999997
mp-613652,PbClF,3.5912999999999995
mp-614185,Pb(SN)2,1.1674000000000002
mp-614918,YClO,2.1238
mp-614951,RbNO3,3.1341
mp-615141,Pb(ClO2)2,1.1622
mp-615537,PdC2ClO2,0.095
mp-615833,Cs2SbCl6,0.08889999999999998
mp-615850,Pb2Se(NO4)2,2.4677
mp-616468,ReC5IO5,2.1994
mp-616521,AgC2N3,3.5682
mp-669326,CdI2,2.3663000000000003
mp-669334,CdI2,2.3407
mp-669340,CdI2,2.3289
mp-669357,CdI2,2.34
mp-669358,CdI2,2.3614
mp-669360,CdI2,2.3392
mp-669381,Pb2OF2,2.2158
mp-669389,Sr3InRhO6,1.4807999999999997
mp-669414,HfPbO3,2.7902000000000005
mp-669421,AlTlSiO4,2.8134
mp-669426,SiO2,5.6183000000000005
mp-669466,AgNO3,2.0015
mp-669496,PtI4,0.6934
mp-669517,Pb(C2N3)2,3.6314
mp-669528,Na2UO4,2.0003
mp-669543,RbHgC3(SN)3,1.9375
mp-669555,KC(NO2)3,1.7084
mp-705785,VZn2O4,1.6010999999999995
mp-706531,Ge3Ru2,0.3529
mp-706536,Hf(MoO4)2,2.9474
mp-706579,KH3(SeO3)2,4.4838000000000005
mp-706585,CaP2(HO2)4,5.0703
mp-706616,ZnH8(O2F)2,4.8552
mp-706622,PH6(NO)2,4.8465
mp-755404,Gd3SbO7,2.4773
mp-755405,SrNd2O4,3.4216
mp-755413,Na2O,1.0915
mp-755416,HoGaO3,3.6065
mp-755420,SrSm2O4,2.8981000000000003
mp-755428,Rb3ClO,1.2267
mp-755441,SrTaNO2,0.9817999999999998
mp-755445,Li2CuPO4,1.2365000000000004
mp-755447,Li3Cu3(PO4)2,1.1587000000000005
mp-755448,Rb2SnO3,2.0716
mp-755449,Cd(AgO2)2,0.42700000000000005
mp-755451,BaLa2Br8,3.1249
mp-755459,Rb2O,0.3077
mp-755463,Li3SbS3,2.0988
mp-755480,KRbO,1.2445
mp-755481,Ca(ClO3)2,4.801500000000001
mp-755486,Na2SnO3,2.2583999999999995
mp-755488,SrTaNO2,0.8909999999999999
mp-755491,Sr2Ti6N2O11,2.1566
mp-755529,SbPHO5,2.0280000000000005
mp-755530,Na3CuO2,1.6626
mp-755537,Y2HfO5,4.2471
mp-755544,YTlO2,1.4748000000000006
mp-755552,LiYS2,0.3767
mp-755565,HoBrO,3.6527
mp-755573,Cs2O,1.6506000000000003
mp-755588,Ho2TeO6,2.5188
mp-755591,Dy2TeO6,2.5307
mp-755595,Er2TiO5,3.0380000000000003
mp-755609,Y2SeO2,2.0962
mp-755612,DyGaO3,3.6351
mp-755619,Sn2P2O7,2.7152
mp-755634,Y2HgO4,1.2172
mp-755642,Li3VS4,1.6175
mp-755646,LiCuO,0.9533
mp-755654,NaSb3O8,0.2807000000000004
mp-755663,Ta2Pb2O7,2.8152
mp-755684,SrCa2I6,3.5008
mp-755717,SmHoO3,4.5947
mp-755740,TbHoO3,4.4709
mp-755742,Ho2Sb2O7,1.3472
mp-755745,LiBi(BO3)2,0.9964
mp-755751,BaYF5,6.908099999999999
mp-755752,Rb2Be2O3,2.2055
mp-755756,Y2TeO2,1.0487000000000002
mp-755779,CaLaI5,2.1794
mp-755781,TbNbO4,3.9277
mp-755783,Li2Ti(BO3)2,2.9039
mp-755790,HfPbO3,2.7562000000000006
mp-755794,Rb3LuO3,2.0394
mp-755798,ZrPbO3,2.6355999999999997
mp-755832,Na5GdO4,2.1312
mp-755835,LiBiB2O5,3.3119
mp-762539,Li2FeSiO4,2.6487
mp-762540,Li2FeSiO4,2.9237
mp-762555,LiFePO4,3.2959
mp-762557,Li2FeSiO4,2.9464
mp-762566,Li2FeSiO4,2.9645
mp-762570,Li3FeSi2O7,2.5116
mp-762576,Li2Fe2Si2O7,2.6998
mp-762582,LiFe(PO3)3,3.4388000000000005
mp-762585,LiFeSiO4,2.3506
mp-762586,LiFeSiO4,2.5312
mp-762623,LiFeSiO4,2.8493
mp-762626,LiFe(PO3)3,3.5443
mp-762632,LiFeSiO4,3.0239
mp-762633,LiMn2NiO6,0.7591999999999999
mp-762639,LiFeSiO4,3.0258
mp-762643,LiFeSiO4,1.6568999999999998
mp-762645,LiFeSiO4,2.839
mp-762650,Li3Fe2(SiO4)2,1.3314
mp-762651,Li2Fe(PO3)4,4.245900000000002
mp-762655,LiFeSiO4,2.2924
mp-762656,LiFeSiO4,2.7244
mp-762657,LiFe(PO3)3,3.7531
mp-762669,LiFeP2O7,2.4451
mp-762671,Mn2(CO3)3,0.6529
mp-762673,LiFe4(PO4)3,2.8418
mp-762679,V(TeO3)4,1.0232
mp-765448,LiCoPO4,2.950600000000001
mp-765449,LiCoPO4,3.0730000000000004
mp-765457,LiMnF3,2.9514
mp-765462,LiFe3OF5,2.2211
mp-765499,Li3VF6,2.4358
mp-765501,Li2NiO2F,0.05439999999999978
mp-765509,LiV(OF)2,2.0856
mp-765521,LiVOF3,2.1107
mp-765528,Li2VOF3,1.8385
mp-765530,Li2VF4,2.7339
mp-765533,NaV3O6,0.8350000000000004
mp-765545,LiVF3,2.5456000000000003
mp-765547,Li3V(OF)2,0.4606999999999997
mp-765548,LiVF4,3.0345
mp-765552,Li2MnCoO4,0.4936000000000002
mp-765555,Li2Mn(PO4)2,0.2862
mp-765557,TiMn3Te2(PO4)6,1.3313
mp-765558,Li6NiOF6,1.9409999999999998
mp-765570,Li2Mn(PO4)2,0.9969
mp-769580,V3(PO4)2,2.165
mp-769584,NaMnPCO7,0.8646
mp-769593,Li4VCr3O8,2.014
mp-769595,Li4VCr3O8,1.6083000000000005
mp-769598,La4MnO8,1.2887000000000004
mp-769605,Li4VCr3O8,1.5099999999999998
mp-769611,Li4V3CrO8,1.9372
mp-769614,Li4V3CrO8,1.8721
mp-769617,Li2VCrO4,1.2694
mp-769620,Li2VCrO4,1.9325
mp-769628,Li4V3CrO8,1.9346
mp-769630,Li2Mn3F8,3.3809
mp-769635,Li2VCrO4,1.3192
mp-769641,Li2VCrO4,1.6276000000000002
mp-769647,VOF,2.7095
mp-769648,Li2TiCo2O5,1.4176000000000002
mp-769649,GdTa3O9,2.3374
mp-769652,Li2VCrO4,1.5322
mp-769653,Li2TiFe2O5,1.4740000000000002
mp-769658,Li2TiFeO4,0.8561000000000001
mp-769660,Li2TiFe2O5,1.6363999999999996
mp-769662,Li2TiFe2O5,1.3106
mp-769668,Li2TiFe2O5,1.2397
mp-769674,Sr2Li2NiO4,2.7003000000000004
mp-769676,RbLi7(NiO3)2,2.4625
mp-769682,HfFeO3,2.1447000000000003
mp-769683,LiFeBO3,2.7734
mp-769686,Li4TiCrO6,1.1431
mp-769687,Li4TiCrO6,1.2953
mp-769690,LiFeBO3,3.242
mp-769692,LuWO4,2.0645
mp-772488,VBiO3,1.2434000000000005
mp-772550,CrO3,2.3421
mp-772571,Li4CrO5,1.2736
mp-772598,MnO2,1.5915
mp-772600,Cd(FeO2)2,1.7144000000000004
mp-772605,NaSnAsCO7,1.7495
mp-772638,Ho2WO6,3.6336
mp-772640,Ga2WO6,3.1372
mp-772660,NbCrO4,1.976
mp-772663,MnH4(SO5)2,0.7624
mp-772665,BeCrO4,2.272
mp-772666,Li2Cr2O7,2.4384
mp-772669,FeCo(PO4)2,0.1211
mp-776864,V3CoO8,0.6205
mp-776875,Ta2CrNO5,1.4326000000000003
mp-776881,LiFeF4,3.0524
mp-776882,V2O5,1.7958
mp-776883,AlFeO3,2.1089
mp-776886,Li2FeF5,2.7262000000000004
mp-776894,NaTiO2,0.109
mp-776895,NbFe3Ni2(PO4)6,2.3587
mp-776896,Nb2O5,2.4469
mp-776905,LiFe2F9,0.6686000000000001
mp-776906,Ti3MnFe2(PO4)6,1.1273999999999995
mp-776915,V5O12,1.3306
mp-776918,Ti3Mn2Fe(PO4)6,0.6205000000000003
mp-776919,Ti3Fe2Te(PO4)6,0.11819999999999985
mp-776921,Ti3CrFe2(PO4)6,0.10719999999999974
mp-776923,Ti3V5O16,1.1384000000000003
mp-776924,Ti3FeSn2(PO4)6,1.3088000000000002
mp-776970,Li5SbS4,1.1939000000000002
mp-776984,HoInO3,2.5765
mp-776999,Cr2O3,2.137
mp-777005,Li2FeF4,3.5017
mp-777007,Ni(IO3)2,3.0322000000000005
mp-777008,LiFeF4,3.6188
mp-777018,Li2FeF4,3.6837
mp-777019,Li8SbS6,0.04010000000000025
mp-777020,LiFeF4,4.3111000000000015
mp-777023,Ti3CrSn2(PO4)6,0.02569999999999961
mp-777025,CoPO4,0.7596
mp-777026,FePO4,1.8779
mp-777046,Li4Ti5Co3O16,0.5101
mp-777050,NaNiPO4,3.5944000000000003
mp-777052,LiV2OF5,1.834
mp-783909,Li2MnSiO4,2.8791
mp-790062,V5Sn(PO4)6,0.04029999999999978
mp-849636,SrTaNO2,0.9120999999999996
mp-849653,Na3(CoO2)2,0.01360000000000028
mp-849666,Ta2CrNO5,1.3251000000000004
mp-849668,V3(O2F)2,0.9618000000000002
mp-849681,Ta2CrNO5,1.3735
mp-849684,MnOF,0.2518
mp-849690,LiFe4(BO3)4,1.7271
mp-849699,V3O5F,0.2003999999999997
mp-849700,V4O5F7,1.5037
mp-849702,CrAgO4,1.4024
mp-849703,Co6O5F7,0.6033000000000002
mp-616564,RbPbIO6,1.3654000000000002
mp-616577,Sr3BCNCl2,1.8788
mp-616580,UO3,1.4882
mp-616587,RbPO3,4.8466000000000005
mp-616597,ReHgO4,2.6922
mp-616850,Sr2VClO4,3.7723
mp-617442,RbTa(CuTe2)2,1.1980000000000004
mp-617543,Th(InBr3)2,2.7543
mp-618423,PtC2(ClO)2,2.9238
mp-618688,Ba2CoSi2O7,2.9441
mp-619032,PbCN2,1.7321999999999995
mp-619034,ZnSiO3,3.3917
mp-619071,PbCl2,3.028
mp-619196,NaCoPO4,2.7851000000000004
mp-672184,RuC4(IO2)2,2.0611
mp-672186,TeS7Cl2,2.2614
mp-672214,BePbF4,5.2044
mp-672248,TaAsPCl13,2.6094
mp-672253,CuHgSCl,0.5615999999999999
mp-672285,CuCSN,2.2647
mp-672302,Ga2Se3,0.5842
mp-672333,PbCSNCl,3.1401
mp-672334,Sr4GaCN5,1.4465
mp-672341,UF6,2.7449000000000003
mp-672346,RbVI3,0.6246
mp-672350,ZrNCl,1.3411
mp-672372,K2S5,1.1703
mp-672644,KNO3,3.1966
mp-672671,PbI2,2.3308