task_id,composition,band_gap
mp-1200772,Ba2YCu3(PbO4)2,0.0
mp-1214572,Ba2YCu3O6F,0.0
mp-20674,Ba2YCu3O7,0.0
mp-1214613,Ba2YCu3O8,0.0
mp-1228257,Ba2YCu3PbO7,0.0
mp-1096848,Ba2YCu3S7,0.0
mp-1214650,Ba2YCu3SO6,0.0
mp-1214594,Ba2YCuO5,0.0
mp-565449,Ba2YFe3O8,0.0
mp-15888,Ba2YIrO6,0.0
mp-1048447,Ba2YMn2TlO7,0.0
mp-1048321,Ba2YMn3O7,0.0
mp-1041433,Ba2YMn3O8,0.0
mp-1048190,Ba2YMo3O8,0.0
mp-1205669,Ba2YMoO6,0.0
mp-1048426,Ba2YNi3O7,0.0
mp-1048131,Ba2YNi3O8,0.0
mp-6430,Ba2YReO6,0.0
mp-1048035,Ba2YSn3O7,0.0
mp-1047749,Ba2YSn3O8,0.0
mp-1046020,Ba2YTi2TlO7,0.0
mp-1047867,Ba2YTi3O7,0.0
mp-1047361,Ba2YTi3O8,0.0
mp-1046353,Ba2YTlCo2O7,0.0
mp-1046345,Ba2YTlCr2O7,0.0
mp-654374,Ba2YTlCu2O7,0.0
mp-1046351,Ba2YTlFe2O7,0.0
mvc-2582,Ba2YTlSn2O7,0.0
mp-1046386,Ba2YTlW2O7,0.0
mp-1048379,Ba2YV3O7,0.0
mp-1047835,Ba2YV3O8,0.0
mp-1048468,Ba2YW3O7,0.0
mp-1048138,Ba2YW3O8,0.0
mp-1205685,Ba2YZrO6,0.0
mp-15039,Ba2Yb(CuO2)4,0.0
mp-1214697,Ba2Yb2CuPtO8,0.0
mp-556696,Ba2YbB2ClO6,0.0
mp-545436,Ba2YbBiO6,0.0
mp-1214570,Ba2YbCu3O7,0.0
mp-1188896,Ba2YbInSe5,0.0
mp-19751,Ba2YbNbO6,0.0
mp-13935,Ba2YbReO6,0.0
mp-12730,Ba2YbRuO6,0.0
mp-14294,Ba2YbSbO6,0.0
mp-7127,Ba2YbTaO6,0.0
mp-1018178,Ba2Zn,0.0
mp-1214629,Ba2Zn2Cr7Ga2(SnO11)2,0.0
mp-14769,Ba2Zn3(AsO)2,0.11900000000000024
mp-555980,Ba2Zn3(PO3)10,4.808199999999999
mp-1095934,Ba2ZnAu,0.0
mp-984784,Ba2ZnCd,0.0
mp-1045620,Ba2ZnCu3F14,0.0
mp-1045777,Ba2ZnCuSn2F14,0.0
mp-1183301,Ba2ZnHg,0.0
mp-1183381,Ba2ZnIn,0.0
mp-1182550,Ba2ZnO6,0.0
mp-1205691,Ba2ZnOsO6,0.0
mp-1214553,Ba2ZnP2F,0.0
mp-1096110,Ba2ZnPd,0.0
mp-549970,Ba2ZnReO6,0.0
mp-1214559,Ba2ZnSb2F,0.0
mp-1228073,Ba2ZrInO6,0.0
mp-1228078,Ba2ZrO6,0.0
mp-1205832,Ba2ZrUO6,0.0
mp-1228086,Ba2ZrWO6,0.0
mp-10669,Ba3(AlGe)2,0.0
mp-1190157,Ba3(AlPt)4,0.0
mp-9578,Ba3(AlSi)2,0.0
mp-7377,Ba3(AlSn)2,0.0
mp-571069,Ba3(CdSb2)2,0.0
mp-1190530,Ba3(Ge4Ir)4,0.0
mp-1192163,Ba3(Ge4Rh)4,0.0
mp-29092,Ba3(GeN)2,0.0
mp-1095231,Ba3(LiBi)4,0.0
mp-30254,Ba3(LiSn2)4,0.0
mp-758025,Ba3(RhO2)14,0.0
mp-686499,Ba32Sb7Pb25O96,0.0
mp-647275,Ba39Li80N9,0.0
mp-1183376,Ba3Ac,0.0
mp-12612,Ba3Ag2,0.0
mp-569218,Ba3Al3Ga2,0.0
mvc-11893,Ba3Al4(Sb2O7)3,0.0
mp-261,Ba3Al5,0.0
mp-1013560,Ba3As2,0.0
mp-1013734,Ba3AsN,0.0
mp-1013586,Ba3AsP,0.0
mp-1104164,Ba3Au2,0.0
mp-1228082,Ba3BeIr2O9,0.0
mp-1013736,Ba3Bi2,0.0
mp-1228435,Ba3Bi2PbO9,0.0
mp-1013563,Ba3BiAs,0.0
mp-1194190,Ba3BiIr2O9,0.0
mp-1013691,Ba3BiP,0.0
mp-1228457,Ba3BiPb2O9,0.0
mp-556602,Ba3BiRu2O9,0.0
mp-1013584,Ba3BiSb,0.0
mp-1183374,Ba3Ca,0.0
mp-17448,Ba3CaIr2O9,0.0
mp-1228470,Ba3CaLa2(Cu3O7)2,0.0
mp-1228590,Ba3CaLa2Cu6O13,0.0
mp-1078915,Ba3CaO4,2.111
mp-6443,Ba3CaRu2O9,0.0
mp-736122,Ba3CaZrWO9,0.0
mp-1104861,Ba3CdHg10,0.0
mp-1214618,Ba3CdIr2O9,0.0
mp-1183563,Ba3Ce,0.0
mp-1178568,Ba3Ce2O6,0.0
mp-1214640,Ba3CeIr2O9,0.0
mp-6301,Ba3CeRu2O9,0.0
mp-1214637,Ba3CoIr2O9,0.0
mp-19058,Ba3CoRu2O9,0.0
mp-18913,Ba3Cr2O8,0.0
mp-12905,Ba3CrN3,0.0
mp-1228373,Ba3Cu17AgP6,0.0
mp-22472,Ba3CuRu2O9,0.0
mp-17145,Ba3CuSb2O9,0.0
mp-1183385,Ba3Dy,0.0
mp-1228297,Ba3DyIrRuO9,0.0
mp-541720,Ba3DyRu2O9,0.0
mp-1183359,Ba3Er,0.0
mp-1228390,Ba3ErIrRuO9,0.0
mp-566430,Ba3ErMn2O9,0.0
mp-541721,Ba3ErRu2O9,0.0
mp-1183350,Ba3Eu,0.0
mp-1214649,Ba3Eu(BO2)9,0.0
mp-1229152,Ba3Eu3(Fe3O8)2,0.0
mp-556259,Ba3EuRu2O9,0.0
mp-1147585,Ba3Fe2BrO5,0.0
mp-1147669,Ba3Fe2TeO5,0.0
mp-767152,Ba3Fe3O8,0.0
mp-567429,Ba3Fe3Se7,0.0
mp-8306,Ba3FeN3,0.0
mp-505787,Ba3FeO5,0.0
mp-1214638,Ba3FeRu2O9,0.0
mp-630328,Ba3FeS5,0.0
mp-1228664,Ba3Ga4Sb5,0.0
mp-1228796,Ba3GdIrRuO9,0.0
mp-9858,Ba3Ge4,0.0
mp-1188954,Ba3Ge5,0.0
mp-568836,Ba3GeI2,0.0
mp-1183347,Ba3H,0.0
mp-1183340,Ba3Ho,0.0
mp-1228398,Ba3HoIrRuO9,0.0
mp-1103999,Ba3InHg10,0.0
mp-1214916,Ba3InIr2O9,0.0
mp-1229018,Ba3Ir2(NO2)12,0.0
mp-1183380,Ba3La,0.0
mp-1228365,Ba3La3(Cu3O7)2,0.0
mp-1229252,Ba3La3Pr3Cu9O22,0.0
mp-1228600,Ba3La5Tl2(Cu2O9)2,0.0
mp-704461,Ba3La7Mn(Co3O10)3,0.0
mp-694945,Ba3La7Mn2(Co4O15)2,0.0
mp-1182400,Ba3LaIr2O9,0.0
mp-1228246,Ba3LaIrRuO9,0.0
mp-558624,Ba3LaRu2O9,0.0
mp-1228381,Ba3LaY2(Cu3O7)2,0.0
mp-1183341,Ba3Li,0.0
mp-1214979,Ba3LiIn11,0.0
mp-554837,Ba3LiIr2O9,0.0
mp-1228318,Ba3LiIrRuO9,0.0
mp-13288,Ba3LiN,0.0
mp-542207,Ba3LiOs2O9,0.0
mp-556674,Ba3LuIr2O9,0.0
mp-1228300,Ba3LuIrRuO9,0.0
mp-555246,Ba3LuRu2O9,0.0
mp-554909,Ba3MgIr2O9,0.0
mp-1228263,Ba3MgIrRuO9,0.0
mp-6520,Ba3MgRu2O9,0.0
mp-1183323,Ba3Mn,0.0
mp-1228085,Ba3Mn2RuO9,0.0
mp-1237261,Ba3MnF12,0.0
mp-9324,Ba3MnN3,0.0
mp-1183316,Ba3Mo,0.0
mp-10736,Ba3N,0.0
mp-1183304,Ba3Na,0.0
mp-1228056,Ba3NaB24,0.0
mp-1202406,Ba3NaCaY(C2O7)3,0.0
mp-1098017,Ba3NaEu3(Si3O10)2,0.0
mp-21876,Ba3NaIr2O9,0.0
mp-9746,Ba3NaIrO6,0.0
mp-1228273,Ba3NaIrRuO9,0.0
mp-8868,Ba3NaN,0.0
mp-542208,Ba3NaOs2O9,0.0
mp-18228,Ba3NaSi23,0.0
mp-1183322,Ba3Nb,0.0
mp-5360,Ba3Nb16O23,0.0
mp-600864,Ba3Nb2CoO9,0.0
mp-1214516,Ba3Nb2NiO9,2.7560000000000002
mp-8846,Ba3Nb5O15,0.0
mp-1183351,Ba3Nd,0.0
mp-1228415,Ba3Nd3(Co3O8)2,0.0
mp-1228353,Ba3Nd3(Cu3O7)2,0.0
mp-1228658,Ba3Nd3Co6O17,0.0
mp-1214535,Ba3NdIr2O9,0.0
mp-1228241,Ba3NdIrRuO9,0.0
mp-6018,Ba3NdRu2O9,0.0
mp-556189,Ba3NiIr2O9,0.0
mp-1228389,Ba3NiIrRuO9,0.0
mp-1076925,Ba3Np,0.0
mp-1029640,Ba3OsN3,0.0
mp-30220,Ba3P3I2,0.0
mp-1183382,Ba3Pa,0.0
mp-630923,Ba3Pb5,0.0
mp-29242,Ba3PbO,0.0
mp-1183371,Ba3Pm,0.0
mp-1183368,Ba3Pr,0.0
mp-1214562,Ba3PrIr2O9,0.0
mp-1228216,Ba3PrIrRuO9,0.0
mp-16821,Ba3PrRu2O9,0.0
mp-38108,Ba3Pt2O7,0.0
mp-38972,Ba3Re2O9,0.0
mp-1183295,Ba3Sb,0.0
mp-1013582,Ba3Sb2,0.0
mp-1078164,Ba3Sc4,0.0
mp-1183300,Ba3Se,0.0
mp-30186,Ba3Si23,0.0
mp-1619,Ba3Si4,0.0
mp-1183357,Ba3Sm,0.0
mp-1228060,Ba3SmB24,0.0
mp-1205402,Ba3SmIr2O9,0.0
mp-1228168,Ba3SmIrRuO9,0.0
mp-6077,Ba3SmRu2O9,0.0
mp-18636,Ba3Sn5,0.0
mp-29243,Ba3SnO,0.0
mp-1183330,Ba3Sr,0.0
mp-1076189,Ba3Sr(Cu2O5)2,0.0
mp-1099602,Ba3Sr(CuO3)4,0.0
mp-1228565,Ba3Sr3Np2,0.0
mp-1076137,Ba3Sr5Co2(CuO4)6,0.0
mp-1076600,Ba3Sr5Co3Cu5O24,0.0
mp-1076683,Ba3Sr5Co4(CuO5)4,0.0
mp-1075989,Ba3Sr5Co4(CuO6)4,0.0
mp-1076186,Ba3Sr5Ti7MnO20,0.0
mp-1099792,Ba3Sr5Ti8O20,0.0
mp-1228463,Ba3Sr5Tl5Cu3O19,0.0
mp-1228028,Ba3SrAg4,0.0
mp-1099886,Ba3SrCo(CuO4)3,0.0
mp-1100085,Ba3SrCoCu3O10,0.0
mp-554266,Ba3SrIr2O9,0.0
mp-1228286,Ba3SrNd2(Cu3O7)2,0.0
mp-1228090,Ba3SrNd2(IrO6)2,0.0
mp-1228212,Ba3SrSm2(CuO2)6,0.0
mp-1228128,Ba3SrSn12,0.0
mp-1228298,Ba3SrTl2Cu2HgO10,0.0
mp-1228114,Ba3SrYb2(ReO6)2,0.0
mp-1214621,Ba3Ta2Ti6O21,0.0
mp-1096815,Ba3Ta4NbO15,0.0
mp-15021,Ba3Ta5O15,0.0
mp-559929,Ba3Ta6Si4O23,0.0
mp-1096858,Ba3TaNb4O15,0.0
mp-978919,Ba3Tb,0.0
mp-1228219,Ba3TbIrRuO9,0.0
mp-6345,Ba3TbRu2O9,0.0
mp-1183363,Ba3Th,0.0
mp-531527,Ba3Ti20O40,0.0
mp-1228452,Ba3Ti3Fe3(BiO9)2,0.0
mp-33339,Ba3Ti3O8,0.0
mp-557692,Ba3Tl2Cl2O5,0.0
mp-1183349,Ba3Tm,0.0
mp-1227963,Ba3TmIrRuO9,0.0
mp-1190569,Ba3UFeS6,0.0
mp-1190259,Ba3UFeSe6,0.0
mp-1183355,Ba3Y,0.0
mvc-12155,Ba3Y4(NiO5)3,0.0
mp-1048252,Ba3Y5(NiO5)3,0.0
mp-1205382,Ba3YIr2O9,0.0
mp-1228020,Ba3YIrRuO9,0.0
mp-18701,Ba3YRu2O9,0.0
mp-1183354,Ba3Yb,0.0
mp-1214546,Ba3Yb(BO2)9,0.0
mp-6131,Ba3Yb(BO3)3,0.0
mp-1102819,Ba3Yb2TeO5,0.0
mp-8261,Ba3Yb4O9,0.0
mp-542939,Ba3ZnIr2O9,0.0
mp-17137,Ba3ZnRu2O9,0.0
mp-1214509,Ba3ZrIr2O9,0.0
mp-1228321,Ba3ZrNb5O12,0.0
mp-561170,Ba3ZrRu2O9,0.0
mp-1228159,Ba4(NbSe4)3,0.0
mp-1214568,Ba4(Sn3Bi)3,0.0
mp-570662,Ba4Ag3Ge20,0.0
mp-1214528,Ba4Al,0.0
mp-2631,Ba4Al5,0.0
mp-1214488,Ba4As3,0.0
mp-1199190,Ba4Bi(IrO4)3,0.0
mp-1228269,Ba4Bi(PbO4)3,0.0
mp-30892,Ba4Bi3,0.0
mp-755667,Ba4Bi3O11,0.0
mp-1228338,Ba4Bi3PbO12,0.0
mp-1147549,Ba4Ca(BiO4)3,0.0
mp-1228265,Ba4Ca4Cu6Hg2O17,0.0
mp-542197,Ba4Ca4Tl3Cu6O19,0.0
mp-1228570,Ba4Ca8Cu11CO20,0.0
mvc-15237,Ba4CaCu6(HgO8)2,0.0
mp-1229195,Ba4CaGd3(Co4O11)2,0.0
mp-1228232,Ba4CaNd3(Co4O11)2,0.0
mvc-11885,Ba4CaTl4(Cu3O10)2,0.0
mp-1214704,Ba4Cd11Ge12,0.0
mp-1214942,Ba4Ce(RuO4)3,0.0
mp-770465,Ba4Ce2O7,0.0
mp-1228697,Ba4CeEu3Tl2(Cu2O9)2,0.0
mp-1228155,Ba4CoNi3S8,0.0
mp-1228860,Ba4Cr13O28,0.0
mp-1228217,Ba4Cu11(Te4S)2,0.0
mp-1228302,Ba4Cu2Si21,0.0
mp-1147529,Ba4Cu3BrO6,0.0
mp-669542,Ba4Cu3Ge20,0.0
mp-1147524,Ba4Cu3IO12,0.0
mp-1232318,Ba4Cu3MoO12,0.0
mp-1023127,Ba4Cu3PbO9,0.0
mp-1147523,Ba4Cu3ReO12,0.0
mp-1147525,Ba4Cu3SeO12,0.0
mp-1147645,Ba4Cu3SeO6,0.0
mp-1214552,Ba4Cu3Si20,0.0
mp-1147655,Ba4Cu3SnO9,0.0
mp-1197658,Ba4Cu8P15,0.0
mp-1214524,Ba4Dy(CuO3)3,0.0
mp-1228235,Ba4Dy2Cu6NiO15,0.0
mp-984788,Ba4Er(RuO4)3,0.0
mp-1228334,Ba4Eu2Cu6O13,0.0
mp-560660,Ba4Eu4Zn3PtO15,0.0
mp-1228108,Ba4Fe2MoWO12,0.0
mp-555458,Ba4Fe2S4I5,0.0
mp-1195255,Ba4Fe3Se10,0.0
mp-761692,Ba4Fe4O11,0.0
mp-1182448,Ba4Fe9O20,0.0
mp-1214544,Ba4Ga22Sn,0.0
mp-1214614,Ba4Ga3Ge20,0.0
mp-1214507,Ba4Ga3Si20,0.0
mp-1228036,Ba4GaSn3,0.0
mp-1214933,Ba4Gd(CuO3)3,0.0
mp-1228341,Ba4GdY(Cu3O7)2,0.0
mp-21839,Ba4Ge20Au3,0.0
mp-30170,Ba4Ge20Pd3,0.0
mp-1201052,Ba4Ge20Pt3,0.0
mp-1214616,Ba4Ge23,0.0
mp-779519,Ba4Hf3O10,3.604
mp-1214501,Ba4Ho(CuO3)3,0.0
mp-560380,Ba4Ho(RuO4)3,0.0
mp-1228372,Ba4InBiO6,0.0
mp-17102,Ba4Ir3O10,0.0
mp-754684,Ba4IrO6,0.0
mp-1228239,Ba4La2Cu6O13,0.0
mp-1229302,Ba4La4Co8O17,0.0
mp-1228530,Ba4La4Co8O23,0.0
mp-1228428,Ba4La4Cu4(BO6)3,0.0
mp-744975,Ba4La6Mn(Co3O10)3,0.0
mp-743838,Ba4La8Mn11SnO36,0.0
mp-1228253,Ba4LaPr(Cu3O7)2,0.0
mp-1228761,Ba4Li(IrO4)3,0.0
mp-767511,Ba4Li6Ti19O44,0.0
mp-775429,Ba4LiBi3O11,0.0
mp-757073,Ba4LiY2Cu5O14,0.0
mp-1147558,Ba4Mg(BiO4)3,0.0
mp-1228543,Ba4Na(FeAs)10,0.0
mp-1228077,Ba4Na(IrO4)3,0.0
mp-542286,Ba4Na(RuO4)3,0.0
mp-566600,Ba4NaMn2O9,0.0
mp-1229163,Ba4Nb25O40,0.0
mp-774719,Ba4Nb3O12,0.0
mp-695140,Ba4NbP4(O9F)2,0.0
mp-1214660,Ba4Nd(IrO4)3,0.0
mp-1214781,Ba4Nd(RuO4)3,0.0
mp-560766,Ba4Nd2Cu2O9,0.0
mp-1228702,Ba4Nd2Cu6NiO15,0.0
mp-1228184,Ba4Nd2Cu6O13,0.0
mp-35986,Ba4Nd3F17,6.347799999999999
mp-1228289,Ba4Nd4Ti3Mn(Cu2O11)2,0.0
mp-1228592,Ba4Nd5Cu9O22,0.0
mp-695553,Ba4Nd7Si12BN27,0.0
mp-565816,Ba4NdMn3O12,0.0
mp-1228248,Ba4NdY(CuO2)8,0.0
mp-30169,Ba4Ni3Ge20,0.0
mp-561099,Ba4Os6ClO18,0.0
mp-1199731,Ba4P15Au8,0.0
mp-752906,Ba4Pb3O10,0.0
mp-1214438,Ba4Pd,0.0
mp-1147711,Ba4Pd3BrO6,0.0
mp-915377,Ba4Pr(RuO4)3,0.0
mp-1228176,Ba4Pr2Cu6O13,0.0
mp-1228380,Ba4Pr3BiO12,0.0
mp-1228513,Ba4Pr4Co8O23,0.0
mp-1228619,Ba4Pr4Fe4Cu4O21,0.0
mp-695596,Ba4Pr7Si12BN27,0.0
mp-1228179,Ba4PrDy(Cu3O7)2,0.0
mp-1228227,Ba4PrEr(Cu3O7)2,0.0
mp-1228601,Ba4PrEu(Cu3O7)2,0.0
mp-1228407,Ba4PrGd(Cu3O7)2,0.0
mp-1228221,Ba4PrHo(Cu3O7)2,0.0
mp-1228451,Ba4PrLu(Cu3O7)2,0.0
mp-565443,Ba4PrMn3O12,0.0
mp-1228202,Ba4PrNd(Cu3O7)2,0.0
mp-1228206,Ba4PrSm(Cu3O7)2,0.0
mp-1228261,Ba4PrTm(Cu3O7)2,0.0
mp-1228182,Ba4PrY(Cu3O7)2,0.0
mp-1228147,Ba4PrY(CuO2)8,0.0
mp-1214403,Ba4Pt,0.0
mp-17304,Ba4Ru3O10,0.0
mp-1229279,Ba4Se4S16O31,0.0
mp-1228313,Ba4Si21Au2,0.0
mp-1228316,Ba4Si22Au,0.0
mp-640551,Ba4Si23,0.0
mp-1214478,Ba4Sm(CuO3)3,0.0
mp-636383,Ba4Sm2Cu2O9,0.0
mp-1196927,Ba4Sm3Cl16,0.0
mp-693655,Ba4Sm7Si12BN27,0.0
mp-1228328,Ba4Sr(FeO3)5,0.0
mp-1076491,Ba4Sr4Co3Cu5O24,0.0
mp-1099676,Ba4Sr4CoCu7O24,0.0
mp-15761,Ba4Ti12O27,0.0
mp-1228478,Ba4Ti3PtO12,0.964
mp-530879,Ba4Ti4O9,0.0
mp-1214645,Ba4Ti6Si4O25,0.0
mp-1228335,Ba4TiAl3P4(O5F)4,0.0
mp-1228214,Ba4TiNb9O18,0.0
mp-1228188,Ba4Tl13Hg3,0.0
mp-561182,Ba4Tl2Cu2HgO10,0.0
mp-684884,Ba4TlBiPb2O9,0.0
mp-1228146,Ba4Tm2Cu6O13,0.0
mp-21686,Ba4UCr2S9,0.0
mp-643409,Ba4Y(CuO3)3,0.0
mp-741593,Ba4Y2Cu4W2O17,0.0
mp-772817,Ba4Y2Cu5O14,0.0
mp-1228291,Ba4Y2Cu5PdO14,0.0
mp-1228275,Ba4Y2Cu6NiO15,0.0
mp-20897,Ba4Y2Cu6O13,0.0
mp-1228315,Ba4Y2Cu7O15,0.0
mp-1228213,Ba4Y2FeCu5O14,0.0
mp-653337,Ba4Yb(CuO3)3,0.0
mp-676767,Ba4Yb3F17,0.0
mp-1228154,Ba4YbPr(Cu3O7)2,0.0
mp-1214758,Ba4Zn11Ge12,0.0
mp-1229043,Ba4Zn2CuGe20,0.0
mp-6716,Ba4Zr(RuO4)3,0.0
mp-1228044,Ba4ZrNb9O18,0.0
mp-676617,Ba5(Bi2O3)7,0.0
mp-583509,Ba5(FeS2)9,0.0
mp-615760,Ba5(InSb3)2,0.0
mp-1214565,Ba5(Sn3Bi2)3,0.0
mp-1229286,Ba51(Pd12O5)2,0.0
mp-559534,Ba5Al2In2IrClO13,0.0
mp-568809,Ba5Al5Pb,0.0
mp-570677,Ba5Al5Sn,0.0
mp-21742,Ba5AlIr2O11,0.0
mp-10045,Ba5As3,0.0
mp-556761,Ba5As3ClO12,3.9960000000000004
mp-1214545,Ba5As3SO12,0.0
mp-703591,Ba5B20(H2O19)2,0.10799999999999996
mp-753124,Ba5Bi3O11,0.0
mp-674987,Ba5Bi5O13,0.0
mp-1228869,Ba5BiPb4O15,0.0
mp-1228343,Ba5Ca2Nb3O15,0.0
mp-1228312,Ba5Ca2Ta3O15,0.0
mp-865528,Ba5Cd2Sb5F,0.0
mp-1228254,Ba5Co4PtClO13,0.0
mp-1228627,Ba5Co5O13F,0.0
mp-24896,Ba5Co5O14,0.0
mp-1228898,Ba5Eu5(Fe5O13)2,0.0
mp-581206,Ba5Eu8Zn4O21,0.0
mp-556323,Ba5Fe5O14,0.0
mp-605650,Ba5Ga5Pb,0.0
mp-568967,Ba5Ga5Sn,0.0
mp-1228211,Ba5Ga6,0.0
mp-753422,Ba5In5O12,0.0
mp-1228223,Ba5La3(GaO4)4,0.0
mp-1195178,Ba5LaSi6,0.0
mp-1228121,Ba5Mg18Ge13,0.0
mp-5080,Ba5Mg18Si13,0.0
mp-766302,Ba5Nb5O14,0.0
mp-30221,Ba5P5I3,0.0
mp-567378,Ba5P9,0.0
mp-622106,Ba5Pb3,0.0
mp-556443,Ba5Ru2Cl2O9,0.0
mp-561481,Ba5Ru2ClO9,0.0
mp-669320,Ba5Si3,0.0
mp-17325,Ba5Sn3,0.0
mp-532816,Ba5Sr2Nd8(CuO5)5,0.0
mp-1228035,Ba5Ti4MoO15,0.0
mp-1214540,Ba5Yb2ZrAl2O13,0.0
mp-18204,Ba5Yb8Zn4O21,0.0
mp-1228368,Ba6(BiSe2)13,0.0
mp-758088,Ba6Bi6O17,0.0
mp-1229082,Ba6Ca12Cu15Hg3O37,0.0
mp-1229281,Ba6Ca15Cu18Hg3O43,0.0
mp-1228306,Ba6Ca2Ir3RuO18,0.0
mp-1228161,Ba6Ca3Cu6Hg3O19,0.0
mp-1228760,Ba6Ca6Cu9Hg3O25,0.0
mp-680433,Ba6Ca6Tl5Cu9O29,0.0
mp-1228333,Ba6Cu3Hg3O13,0.0
mp-556702,Ba6Eu(ClF6)2,0.0
mp-686328,Ba6Fe14Cu11S27,0.0
mp-1196681,Ba6Fe25S27,0.0
mp-1214735,Ba6Fe3Si8C2(ClO10)3,0.0
mp-27489,Ba6Fe8S15,0.0
mp-642047,Ba6Ga2Co11O26,0.0
mp-16859,Ba6Ga5N,0.0
mp-1228029,Ba6Ge2N7,0.0
mp-601322,Ba6Ge5N2,0.0
mp-1228344,Ba6Ho2Al2Rh2O15,0.0
mp-996942,Ba6In2NF,0.0
mp-672306,Ba6In5N,0.0
mp-1198788,Ba6Li2Si4ClO15,0.0
mp-773118,Ba6Li2Ta9Ti7O42,0.0
mp-772829,Ba6Li2Ti7(Sb3O14)3,0.0
mp-773084,Ba6Li2Ti7Nb9O42,0.0
mp-568512,Ba6Mg23,0.0
mp-1228733,Ba6Mn4Si12Cl3O34,0.02439999999999997
mp-505213,Ba6Na16N,0.0
mp-565759,Ba6Na2Cr2Ru2O17,0.0
mp-558113,Ba6Nb2Ir(ClO6)2,0.0
mp-685968,Ba6Nb5S17,0.0
mp-1228527,Ba6Nb9CoO30,0.0
mp-1228347,Ba6Nd2Y(CuO2)12,0.0
mp-1228694,Ba6Nd3TiCu6(MoO12)2,0.0
mp-9415,Ba6Ni25S27,0.0
mp-1104257,Ba6Os2N6O,0.0
mp-1228902,Ba6Pr2Y(CuO2)12,0.0
mp-1104571,Ba6Re2N6O,0.0
mp-558595,Ba6Ru3(ClO6)2,0.0
mp-1214762,Ba6Si6CN14,0.0
mp-1228395,Ba6Sm3Al(Cu2O5)4,0.0
mp-1076296,Ba6Sr2CoCu7O20,0.0
mp-1076247,Ba6Sr2CoCu7O24,0.0
mp-773060,Ba6Ta9Ti7O42,0.0
mp-686370,Ba6Tb3Nb(SnO9)2,0.0
mp-773058,Ba6Ti7(Sb3O14)3,0.0
mp-773061,Ba6Ti7Nb9O42,0.0
mp-989542,Ba6Tl2NCl,0.0
mp-1228458,Ba6Y2Ru3PtO18,0.0
mp-1228789,Ba6Y3Co3(Cu3O11)2,0.0
mp-1228278,Ba6Y3Cu9O20,0.0
mvc-13160,Ba6YTl3(Cu2O7)3,0.0
mp-676990,Ba7(Al3Te8)2,0.0
mp-27261,Ba7(BIr)12,0.0
mp-672715,Ba7(Fe3S7)2,0.0
mp-570400,Ba7Al10,0.0
mp-1952,Ba7Al13,0.0
mp-567067,Ba7Al4Ge9,0.0
mp-1195461,Ba7Al4Sb9,0.0
mp-1228287,Ba7Cd31,0.0
mp-1195273,Ba7Ga4As9,0.0
mp-1195680,Ba7Ga4P9,0.0
mp-1204965,Ba7Ge6,0.0
mp-1228441,Ba7Hg31,0.0
mp-28867,Ba7Ir6O19,0.0
mp-1228662,Ba7Li3(RuO5)4,0.0
mp-567157,Ba7Na5Li3N3,0.0
mp-556877,Ba7Ru4Br2O15,0.0
mp-554143,Ba7Ru4Cl2O15,0.0
mp-1099795,Ba7Sr(Cu2O5)4,0.0
mp-1099824,Ba7Sr(CuO3)8,0.0
mp-1076342,Ba7SrCoCu7O24,0.0
mp-685632,Ba7U7O24,0.0
mp-867542,Ba8(Bi2O7)3,0.0
mp-761784,Ba8Bi10O27,0.0
mp-676105,Ba8Bi2F17,0.0
mp-1228256,Ba8Ca3Nb5O24,0.0
mp-1228371,Ba8Ca4Cu8Hg4O25,0.0
mp-1204270,Ba8Ca8Tl7(Cu4O13)3,0.0
mp-1228323,Ba8CaY3(CuO2)12,0.0
mp-1228271,Ba8Cu4Hg4O17,0.0
mp-766404,Ba8Cu8O19,0.0
mp-1192107,Ba8CuSi16,0.0
mp-1214436,Ba8Dy3(Pt2O9)2,0.0
mp-1198571,Ba8Eu7Cl34,0.0
mp-761960,Ba8Fe8O21,0.0
mp-30429,Ba8Ga7,0.0
mp-1229327,Ba8Gd4(Cu4O9)3,0.0
mp-1228873,Ba8Ge43Pd3,0.0
mp-1214459,Ba8Ho3(Pt2O9)2,0.0
mp-773072,Ba8LiNb7O24,0.0
mp-772523,Ba8LiTa7O24,0.0
mp-1214446,Ba8Lu3(Pt2O9)2,0.0
mp-640790,Ba8Nb6CoO24,0.0
mp-780569,Ba8Nb7O24,0.0
mp-1228958,Ba8PrY3(Cu3O7)4,0.0
mp-654327,Ba8Re2(WO8)3,0.02679999999999972
mp-1214448,Ba8Sc3(Pt2O9)2,0.0
mp-1228259,Ba8Si43Au3,0.0
mp-1229001,Ba8Sr2Sm5(Cu3O7)5,0.0
mp-1228720,Ba8Sr2Yb5(Cu3O7)5,0.0
mp-1228432,Ba8Ta2Ru3(BrO9)2,0.0
mp-677325,Ba8Tl2Bi2Pb4O17,0.0
mp-1202453,Ba8U3(HgS6)3,0.0
mp-557098,Ba8V7O22,0.0
mp-1229138,Ba8Y3Lu(CuO2)16,0.0
mp-1228425,Ba8Y4(Cu4O9)3,0.0
mp-1228755,Ba8ZrNb19O36,0.0
mp-1229328,Ba9(FeSe4)4,0.0
mp-559813,Ba9Cu7Cl2O15,0.0
mp-555262,Ba9Fe4S15,0.046099999999999586
mp-1202498,Ba9Ge23O57,0.0
mp-1105101,Ba9In4,0.0
mp-1104568,Ba9In4H,0.0
mp-677030,Ba9La9Cu9Ru9O46,0.0
mp-33581,Ba9Nb10O30,0.0
mp-772389,Ba9Rh8O27,0.0
mp-1183364,BaAc3,0.0
mp-569114,BaAg2SnSe4,0.06020000000000001
mp-1048230,BaAg4O7,0.0
mp-1814,BaAg5,0.0
mp-7359,BaAgAs,0.0
mp-996990,BaAgO2,0.0
mp-1195220,BaAgSbS3O,0.0
mp-1079984,BaAl,0.0
mp-556178,BaAl2(GeO4)2,3.936
mp-1214647,BaAl2Si3(W2O5)2,0.0
mp-696776,BaAl3P2(HO7)2,0.0
mp-1903,BaAl4,0.0
mp-1193237,BaAl5O9,0.0
mp-16483,BaAl9Fe2,0.0
mp-12549,BaAl9Ni2,0.0
mp-1042494,BaAlCoCuO5,0.0
mp-1048544,BaAlCr4O7,0.0
mp-1042497,BaAlCrCuO5,0.0
mp-1042186,BaAlCu2O5,0.0
mp-1048141,BaAlCu4O7,0.0
mp-1042181,BaAlCuAgO5,0.0
mp-1042180,BaAlCuBiO5,0.0
mp-1042504,BaAlCuMoO5,0.0
mp-1042478,BaAlCuNiO5,0.0
mp-1042194,BaAlCuSbO5,0.0
mp-1042199,BaAlCuSnO5,0.0
mp-1044976,BaAlCuWO5,0.0
mp-1042464,BaAlFeCuO5,0.0
mp-13272,BaAlGe,0.0
mp-1078453,BaAlGeF,0.0
mp-1183283,BaAlO3,0.0
mp-1214467,BaAlPO5F,0.33299999999999996
mp-13149,BaAlSi,0.0
mp-1227950,BaAlSn,0.0
mp-1048159,BaAlSn4O7,0.0
mp-1042520,BaAlVCuO5,0.0
mp-1048423,BaAlW4O7,0.0
mp-9767,BaAs2Pd,0.0
mp-9769,BaAs2Pt,0.0
mp-15325,BaAs3,0.0
mp-23810,BaAsHO4,3.774
mp-9744,BaAsPd,0.0
mp-8458,BaAsPt,0.0
mp-570775,BaAu,0.0
mp-30364,BaAu5,0.0
mp-1183287,BaAuO3,0.0
mp-1214407,BaBO3,0.0
mp-30425,BaBe13,0.0
mp-631532,BaBe2Te,0.0
mp-631517,BaBeGa,0.0
mp-1183282,BaBeO3,0.0
mp-1227947,BaBeSi,0.0
mp-1227974,BaBi2(BrO)2,0.0
mp-1228023,BaBi2(IO)2,0.0
mp-1228075,BaBi2Br2O5,0.0
mp-35915,BaBi2O5,0.0
mp-23201,BaBi3,0.0
mp-561172,BaBi4(BrO3)2,0.0
mp-560145,BaBi4(ClO3)2,0.0
mp-546846,BaBi4(IO2)2,0.0
mp-31140,BaBiAu,0.0
mp-559051,BaBiO3,0.0
mp-1183339,BaBr3,0.0
mp-997616,BaC,0.0
mp-1214493,BaC2O5,0.0
mp-1214417,BaC6,0.0
mp-1214434,BaCO4,0.0
mp-1227938,BaCa,0.0
mp-1046998,BaCa(AgO2)4,0.0
mp-1046980,BaCa(CuO2)4,0.0
mp-1044745,BaCa(MoO2)4,0.0
mp-1047389,BaCa(SnO2)4,0.0
mp-1048070,BaCa(WO2)4,0.0
mp-1214453,BaCa2Cu3O5,0.0
mp-757074,BaCa2I6,3.8624000000000014
mp-1103554,BaCa2Mg(SiO4)2,4.9719999999999995
mp-1214597,BaCa2WN4,2.579
mp-1183332,BaCa3,0.0
mp-696695,BaCaCO3,0.0
mp-1093940,BaCaCd2,0.03330000000000012
mp-1044468,BaCaCr4O8,0.0
mp-1096623,BaCaIn2,0.0
mp-1095925,BaCaMg2,0.0
mp-1044544,BaCaMn4O8,0.0
mp-1183285,BaCaO3,0.0
mp-631512,BaCaRu2,0.0
mp-1041343,BaCaSbF7,4.388999999999999
mp-11265,BaCaSn,0.2466
mp-1041385,BaCaSnF7,0.0
mp-1046986,BaCaTi4O8,0.0
mp-979986,BaCaYb2,0.0
mp-527,BaCd,0.0
mp-31216,BaCd11,0.0
mp-11266,BaCd2,0.0
mp-1078435,BaCd2Pt,0.0
mp-1183366,BaCd3,0.0
mp-1227962,BaCd3Ga,0.0
mp-30426,BaCdBi2,0.0
mp-11816,BaCdGe,0.0
mp-1183292,BaCdO3,0.0
mp-1228125,BaCdPb,0.0
mp-1227971,BaCdSn,0.0
mp-985290,BaCe,0.0
mp-1196315,BaCe(SnS3)2,0.0
mp-22288,BaCe2CoS5,0.0
mp-16532,BaCe2FeS5,0.0
mp-10502,BaCe2MnS5,0.0
mp-778873,BaCe2O4,0.0
mp-16453,BaCe2ZnS5,0.0
mp-1183525,BaCe3,0.0
mp-569380,BaCeI4,0.0
mp-1099105,BaCeMg14,0.0
mp-505765,BaCoN,0.026199999999999786
mp-18965,BaCoO3,0.0
mp-19832,BaCoS2,0.0
mp-19500,BaCr10O15,0.0
mp-1214892,BaCr2(RuO3)4,0.0
mp-1041288,BaCr4O8,0.0
mp-559246,BaCrF6,0.0
mp-1048114,BaCrF7,0.0
mp-1029770,BaCrN2,0.0
mp-567113,BaCrO3,0.0
mp-1078516,BaCrS2,0.0
mp-30428,BaCu,0.0
mp-1182559,BaCu(C2O7)2,0.0
mp-642,BaCu13,0.0
mp-1096847,BaCu2(AgO2)2,0.0
mp-17262,BaCu2(AsO4)2,0.0
mp-22407,BaCu2Si2O7,0.0
mp-554401,BaCu2Te2(ClO3)2,0.0
mp-3988,BaCu3O4,0.0
mp-1048179,BaCu4O7,0.0
mp-11145,BaCu9Ge4,0.0
mp-11143,BaCu9Si4,0.0
mp-1192715,BaCu9Sn4,0.0
mp-12268,BaCuF4,0.0
mp-1227964,BaCuGe,0.0
mp-997034,BaCuO2,0.0
mp-1076800,BaCuO3,0.0
mp-1147782,BaCuO6,0.0
mp-16254,BaCuP,0.0
mp-1042220,BaCuReO5,0.0
mp-1214483,BaCuRu5O11,0.0
mp-1147715,BaCuS2,0.0
mp-1147561,BaCuSO,0.0
mp-11700,BaCuSb,0.0
mp-1042217,BaCuSbO5,0.0
mp-1096855,BaCuSeO,0.0
mp-5792,BaCuSn2,0.0
mp-557735,BaCuTe2O7,0.0
mp-1042556,BaCuWO5,0.0
mp-19364,BaDy2CoO5,1.8436
mp-22550,BaDy2CuO5,0.0
mp-1207068,BaDyFeCuO5,0.0
mp-1183286,BaDyO3,0.0
mp-505808,BaEr2CuO5,0.0
mp-1104205,BaErFe4O7,0.0
mp-1188765,BaErMn2O5,0.0
mp-1183291,BaErO3,0.0
mp-546182,BaEu2CoO5,0.0
mp-579071,BaEu2Mn2O7,0.0
mp-1019738,BaEu2O4,0.0
mp-1183388,BaEu3,0.0
mp-656144,BaEuFe2O5,0.0
mp-1228144,BaEuFeCuO5,0.0
mp-754392,BaEuO2,0.0
mp-1183310,BaEuO3,0.0
mp-1228016,BaEuS2,0.0
mp-705834,BaFe15O23,0.0
mp-22739,BaFe2S3,0.0
mp-504563,BaFe2Se3,0.0
mp-1228771,BaFe5Bi4O15,0.0
mp-1227957,BaFeAs2Ru,0.0
mp-1201579,BaFeCoPbO5,0.0
mp-1228046,BaFeCuPb2ClO5,0.0
mp-19035,BaFeO3,0.0
mp-1096808,BaFeS,0.0
mp-1219,BaGa2,0.0
mp-1227967,BaGa3Sn,0.0
mp-335,BaGa4,0.0
mp-1008511,BaGaCu2,0.0
mp-1102026,BaGaGe,0.0
mp-1182080,BaGaH4,0.0