task_id,pretty_formula,band_gap
mp-763754,K2CoP4(HO2)8,3.2666999999999997
mp-763781,Li3Fe2(SiO4)2,1.6844000000000001
mp-764079,Mn6O5F7,0.20460000000000012
mp-764833,Li4V3(OF2)4,1.384
mp-765931,MnF3,0.9456000000000001
mp-766403,Mg3Cu9(SiO3)16,0.14360000000000017
mp-766647,Li4V3P8O29,0.44120000000000004
mp-766666,Li4V3P8O29,0.9803999999999999
mp-770227,Li3Cr3NiO8,0.0
mp-771654,LiMn2(PO4)2,0.0
mp-771683,Li2TiMn3O8,0.0
mp-771778,Tm2P4O13,5.467899999999999
mp-771814,CaPbI6,1.8336999999999999
mp-771870,LiMn2(PO4)2,0.23330000000000028
mp-771879,Sr2LaCl7,4.2448999999999995
mp-771888,Sr2LaCl7,4.145300000000001
mp-771922,Ba3YI9,2.8352999999999997
mp-774420,Fe2Ni(PO4)3,0.0
mp-775156,LiMnSiO4,1.2671999999999999
mp-775267,Li3MnV(PO4)3,0.23399999999999999
mp-775293,Na9Fe10(SiO3)20,0.0
mp-775534,Mn2Sn(PO4)3,0.0
mp-776759,Mn2Fe(PO4)3,0.0
mp-778041,Li9Mn7(PO4)12,0.0
mp-778085,Na5Bi2P(CO4)4,0.026800000000000157
mp-778928,Fe6O7F5,0.0
mp-779689,H3N,3.7337000000000002
mp-780769,LiCu(PO3)2,1.0178000000000003
mp-780779,Cr(Si2O5)2,1.8279999999999998
mp-780850,Li3Mn4(BO3)4,0.00770000000000004
mp-782053,Sr9La5Cl33,3.6325000000000003
mp-849057,FeS,0.0
mp-849560,Li5Fe4(P2O7)4,1.4432000000000003
mp-858,TmAl2,0.0
mp-8582,Eu(PRh)2,0.0
mp-861499,Pr2CuIr,0.0
mp-861738,CaMgPb,0.0
mp-862934,Li2PmTl,0.0
mp-865039,HfTc2Sn,0.0
mp-865098,NaLaAu2,0.0
mp-865248,TmNbRu2,0.0
mp-865420,Lu2CuTc,0.0
mp-866197,Li2PrPb,0.0
mp-868755,LiNi(PO3)4,0.0
mp-868889,La18Ni12O41,0.24139999999999961
mp-947,Au2S,1.9021000000000001
mp-9487,USiAu,0.0
mp-949,CoPt,0.0
mp-95,Sr,0.0
mp-953,NbZn3,0.0
mp-971928,Zn3Ge,0.0
mp-972828,Cu3Si,0.0
mp-972924,La(Mg4Al3)4,0.0
mp-973648,FeRhO3,0.0
mp-973652,LuRu3,0.0
mp-973668,LuSi3,0.0
mp-9744,BaAsPd,0.0
mp-974799,Rb3Sr,0.0
mp-974827,KPr3,0.0
mp-974938,Rb3Li,0.0
mp-974948,Rb3In,0.0
mp-974949,Rb3Ir,0.11590000000000011
mp-974950,Rb3Li,0.0
mp-975390,RbCa3,0.0
mp-978929,SrAcZn2,0.0
mp-981386,ScH4Pd3,0.0
mp-981934,LaBeO3,0.0
mp-982,TmPd3,0.0
mp-982040,KBiO3,0.0
mp-982245,PbAuO3,0.0
mp-984359,DyO3,0.0
mp-985564,InTc3,0.0
mp-985575,LiAg(CO2)2,2.118
mp-995122,NbS2,0.0
mp-998512,InPbCl3,2.5321999999999996
mp-998965,TiInFe2,0.0
mp-998988,Ti3Ga,0.0
mp-999201,Sc2MnSi,0.0
mvc-12309,Y2(Mo2O7)3,0.0
mvc-12315,Y4(Mo2O7)3,0.45279999999999987
mvc-12321,CaSb2S5,0.0
mvc-12916,V6Zn(FeO6)4,0.0
mvc-12918,Sb5S3O5,0.0
mvc-14011,Mg3Sb2O7,0.21440000000000037
mvc-15478,CoN,0.0
mvc-15523,Ca(CoN)2,0.0
mvc-3500,CrO2,0.0
mp-1044722,BiO2,0.0
mp-1046715,Ti4ZnO6,0.0
mp-1048423,BaAlW4O7,0.0
mp-1173470,NiGeH12(OF)6,0.0
mp-1175053,Li7Mn2(CoO4)3,0.037799999999999834
mp-1183481,BiS3,0.0
mp-1184083,Er2ZnAg,0.0
mp-1184215,FeAsO3,0.0
mp-1184475,Eu3Y,0.0
mp-1184780,IrC3,0.0
mp-1186098,NaAl3,0.0
mp-1186717,Pr3Hf,0.0
mp-1187279,Tb3Hg,0.0
mp-1187419,Ti2GaTc,0.0
mp-1189601,Tm2Si5Ni3,0.0
mp-1190608,Ho2Fe17C3,0.0
mp-1190933,Li8Hf3,0.0
mp-1195704,CaH2S2N2O9,0.0
mp-1202948,Ba3(AlP2)2,1.2812999999999999
mp-1212970,Fe7Ge4,0.0
mp-1213342,Eu3MoO7,0.0
mp-1213585,Eu2WO6,0.0
mp-1215698,Zr3Fe8Mo,0.0
mp-1215746,ZnCdCu4(SnS4)2,0.0
mp-1216210,Y(AlCu)6,0.0
mp-1216440,V6GaSi,0.0
mp-1217039,V4(CrS2)5,0.0
mp-1217067,Ti2ReOs,0.0
mp-1217143,Ti3AgS6,0.0
mp-1220122,Ni4GePt5,0.0
mp-1221212,Na4Ca2SnP4,0.9165999999999999
mp-1221529,MnZnS4,0.0
mp-1221820,Mn2InSnPd4,0.0
mp-1222120,Mn4Fe8Si3Ge,0.0
mp-1222671,Li2CdIn,0.0
mp-1223602,K8CaTe6,0.0
mp-1224508,Hf4(Ru4C)3,0.0
mp-1224800,FeTe2,0.0
mp-1225149,Gd5Si2BO13,2.6508999999999996
mp-1225693,DyMn2SiGe,0.0
mp-1226043,CsFeCoF6,1.4264000000000001
mp-1227952,CeGa2Ni3,0.0
mp-1228328,Ba4Sr(FeO3)5,0.0
mp-1228974,AlVCo,0.0
mp-1229303,Ba10GdY4(Cu3O7)5,0.0
mp-6152,La2ZnIrO6,0.0
mp-640915,Na2LaPS2O7,3.6339000000000006
mp-640950,NaB9Se8,1.9422000000000001
mp-641167,Ag2Mo2O7,1.9881999999999997
mp-641314,Dy2(GePt3)3,0.0
mp-641500,Na5Co2O5,1.3177999999999999
mp-641565,Er5Sb3,0.0
mp-641571,CeAlPd,0.0
mp-641917,ZnSiO3,3.3367999999999993
mp-642238,Y6AgTe2,0.0
mp-642254,Tl2V8O21,1.3077999999999999
mp-642301,Y7Te2,0.0
mp-642428,Y3Al19Ni5,0.0
mp-642482,Sr7Mn4O13,1.1903000000000001
mp-642625,Hg12SbBr(ClO3)2,0.0
mp-642651,Yb2Ge4Ru3,0.0
mp-642750,NaV2O4,0.0
mp-642824,SF6,5.9605999999999995
mp-643060,ZnH4(BrO)2,3.5934999999999997
mp-683947,SiO2,5.2101999999999995
mp-683997,Ce3NbS3O4,0.0
mp-684083,Sb(PO3)4,0.0
mp-684104,LiSb2P5O16,3.2950999999999997
mp-684446,LiSnP2O7,0.0
mp-684477,Li2Sb(PO3)5,3.9673999999999996
mp-684482,Sn(PO3)3,0.0
mp-684496,SbP2O7,0.0
mp-684617,Bi2O3,0.9627999999999997
mp-684786,K2Ba6Yb3Bi5O24,0.0
mp-684841,KMg3AlSi3(O5F)2,3.7646999999999995
mp-684861,NaYbTiNbO6F,0.0
mp-684890,Tb4F15,0.0
mp-684911,Sm2Te3,0.9168000000000003
mp-684950,KNaZr2Be(PO4)4,2.6611000000000002
mp-684991,NaCaScZn(SiO3)4,4.549300000000001
mp-685003,Tb2Se3,1.5314000000000005
mp-685107,Cu9Se5,0.0
mp-740739,K6Te2P6(H4O11)3,0.45600000000000007
mp-743572,Zn2FeP2(H2O3)4,3.1504999999999996
mp-743609,NiH12(BrO6)2,0.0
mp-743618,CoPH6O6F,0.0
mp-743619,CoH6C2S2N2O3,2.2358000000000002
mp-743645,KMgIn(MoO4)3,3.8209999999999997
mp-743651,MnP2H4O5,0.432
mp-743697,MgZr3Tl10(MoO4)12,2.9435000000000002
mp-743761,LiFe3SiPO8,2.5643000000000002
mp-745208,DyFeH8C6(N3O2)2,2.6506999999999996
mp-746371,KCo2As2HO8,2.0012999999999996
mp-760786,Li2Cu3F11,0.0
mp-760817,Li2AgF4,0.0
mp-760819,LiAg2F6,0.12200000000000011
mp-760939,Cu6OF11,0.0
mp-760994,NaSbO3,1.9295999999999998
mp-761132,Ta5Pb11O26,0.0
mp-761304,Li3Fe(BO2)5,3.9719999999999995
mp-761320,Li2VP2O7,2.7746999999999997
mp-761323,Co6O5F7,0.0
mp-761329,LiMn(SiO3)2,1.4971999999999999
mp-761335,Li4V(PO4)2,2.6180999999999996
mp-761342,Li4Co2Cu3Sb3O16,0.0
mp-761346,Li7Si2(NiO4)3,0.0
mp-761350,Ni5Sb(PO4)6,0.0
mp-761357,Li3V(PO4)2,1.8612999999999997
mp-761360,MnCd9O10,0.0
mp-761363,Na(WO3)9,0.0
mp-761365,Li4Mn5Cu3O16,0.0
mp-763911,Li7Fe4NiO12,0.0
mp-763988,Li4NbTe2WO12,0.0
mp-763989,Mn3(OF2)2,0.0
mp-763991,MnOF,0.0
mp-763993,Li2TiVO4,0.0
mp-763996,Mn3(OF2)2,0.0
mp-763997,Mn6O5F7,0.26150000000000007
mp-763998,Mn6O5F7,0.0
mp-763999,Mn6O5F7,0.0
mp-764001,Co6O7F5,0.0
mp-764018,Co6O5F7,0.048899999999999944
mp-764023,Co6O5F7,0.25540000000000007
mp-764024,Co6O5F7,0.0
mp-764026,MnOF,0.0
mp-764033,NaMn2O4,0.0
mp-767139,LiCr2(PO4)2,1.0178000000000003
mp-767182,Mn5OF11,0.0
mp-767196,Li3Mn5OF11,2.2348999999999997
mp-767199,LiMn3OF5,1.8939000000000001
mp-767209,Li8Nb(FeO4)3,0.007599999999999829
mp-767230,LiMn2(PO4)2,0.0
mp-767233,V6Cu2O15,0.0
mp-767243,Li4Ti2Fe3Sb3O16,0.0
mp-767249,Li4MnCo3(PO4)4,2.3728000000000002
mp-767251,Li2VSiO5,2.2561999999999998
mp-767273,Li2Mn3F10,0.0
mp-767277,FePHO5,0.0
mp-767279,Li2DyPCO7,4.784800000000001
mp-767281,Li6MnVP2(CO7)2,2.6874000000000002
mp-767289,Li6FeNiP2(CO7)2,3.1481999999999997
mp-767290,Li6CrNiP2(CO7)2,1.8454999999999995
mp-767292,Li8Fe7O15,0.0
mp-767296,Li4TiMn3(PO4)4,0.0
mp-767298,Li6FeCoP2(CO7)2,0.0
mp-767302,Li2SiNiO4,3.461
mp-767303,Li2Mn(SiO3)2,3.1693000000000002
mp-770693,Li3MnAl2O6,1.4060000000000001
mp-770697,CrPO4F,0.0
mp-770701,Li2Si4NiO10,3.7536999999999994
mp-770728,Li3CrO4,0.0
mp-770736,Na4Cr2As(CO4)4,0.0
mp-770824,Nb2P4H3O16,0.0
mp-770836,Ba5Sc6O14,3.6435000000000004
mp-770842,Li4Mn2Co3Sb3O16,0.21760000000000002
mp-770853,Li2CoPO4F,2.6148000000000002
mp-770858,V5Cr(PO4)6,0.0
mp-770873,Ho2WO6,2.8638999999999997
mp-770884,Li2SnCSO7,3.7891000000000004
mp-774754,KRe4O8F13,3.1294999999999997
mp-774863,LiNi9S10,0.0
mp-774995,Fe5(OF4)2,0.9343999999999999
mp-775072,Li4Mn3Cu2Sb3O16,0.0
mp-775073,Li4Cr3Fe3(SnO8)2,0.46819999999999995
mp-775092,Li4Cr3Sn3(SbO8)2,0.0
mp-775102,Li7Fe3Co(PO4)6,0.0
mp-775128,Fe3Sb(PO4)6,0.0
mp-775136,Li4Cr3Co3(TeO8)2,0.0
mp-775137,CoCu3(PO4)4,0.0
mp-775145,Li4Nb3Cu3(SnO8)2,0.021599999999999397
mp-775154,LiMnF4,1.701
mp-775157,Li6MnV3(PO4)6,0.0
mp-775162,V3Co3(TeO8)2,0.0
mp-779299,Li3Mn4(BO3)4,0.0
mp-779332,B2TeO6,2.5854999999999997
mp-779353,Li3Fe5OF11,3.1350000000000002
mp-779363,Cr4OF11,0.9148000000000001
mp-779379,LiV4OF11,1.1080999999999999
mp-779396,LiV6O7F5,1.2351999999999999
mp-779411,Li4Mn3Fe(BO3)4,2.9699999999999998
mp-779472,Li5Cu(PO4)2,1.9918999999999998
mp-779522,Ho2P4O13,5.359500000000001
mp-779650,Na5CuO4,0.0
mp-779690,Hg(TeO3)2,1.9151999999999998
mp-779692,Ti7O8,0.0
mp-779754,Na5Ni2As(CO4)4,0.0
mp-779756,Na5Co2As(CO4)4,0.0
mp-779772,Li32Mn11Cr5O48,1.0191999999999999
mp-867613,LiTi4O8,0.0
mp-867966,Eu2SiO5,0.0
mp-868139,Li4Mn2Nb3Cr3O16,0.10729999999999995
mp-868170,Ba(WO3)6,0.0
mp-868255,V3Co5O16,0.0
mp-868300,La16Ni8O33,0.0
mp-868325,Li7V(O2F)2,1.9660000000000002
mp-643356,SrH2Br2O,4.175800000000001
mp-649729,NbO2,0.18579999999999997
mp-649957,Cu3Mo2O9,0.0
mp-650328,NbTe4,0.0
mp-650503,Rb3V2Br9,0.0
mp-651934,CsCrP2O7,2.6765999999999996
mp-686042,Zn4B2O7,1.8634000000000002
mp-686701,Nd3O2F5,3.9478999999999997
mp-686726,LaTiAlPbO6,1.8576000000000006
mp-746692,K2Co3P4(HO4)4,2.8373999999999997
mp-752396,Ca2HfO4,0.0
mp-752407,Dy2Ge2O7,3.8173999999999997
mp-752428,Rb2PrO3,0.0
mp-752432,Gd3NbO7,2.3855999999999997
mp-752433,LiLa3Ti4O12,0.0
mp-752449,La2B4O9,4.491899999999999
mp-752453,Sm2TiO5,3.0740999999999996
mp-752501,LiSiBiO4,3.0338999999999996
mp-752503,CeZr7O16,1.9388999999999998
mp-752507,LiCuPO4,0.0
mp-752514,BaSrI4,3.6361999999999997
mp-752525,LiAgF2,1.7691000000000001
mp-752605,LiAgF3,0.32889999999999997
mp-752651,Li4Ti2Nb3Cu3O16,0.0
mp-752670,Li3FeS3,0.0
mp-752685,ZrBiO4,1.0659000000000005
mp-761373,Li2Si5Ni5O16,2.9337999999999997
mp-761375,Li2Ti3Ni(PO4)6,0.013399999999999967
mp-761381,Li2Mn5(Si2O7)2,2.5214999999999996
mp-761383,Li2CrP2O7,3.0176999999999996
mp-761388,LiCrPO4,1.4076999999999997
mp-761407,Li4Cr3Ni3(TeO8)2,0.0
mp-761408,Li3Cr(PO4)2,2.6906999999999996
mp-761411,Li4Ti2Nb3Cr3O16,0.0
mp-761422,VFe3Sb2(PO4)6,0.0
mp-761424,TiFe(PO4)2,0.27849999999999975
mp-761431,Ti5Fe7O18,1.3637999999999995
mp-761445,Li4Mn3Cr3(NiO8)2,0.9221999999999997
mp-761857,LiNb(BO3)2,3.0477999999999996
mp-761873,KTiF4,0.0
mp-761886,Li2Cu2F5,0.0
mp-761893,Li2Cu3F7,0.0
mp-761911,Li2Cu(PO3)4,0.869
mp-761916,NaH4Au(Br2O)2,0.9742000000000001
mp-761922,LiNb(TeO4)3,1.4654000000000003
mp-761932,Fe3Co3(TeO8)2,0.0
mp-761936,Li4Cu7(PO4)6,0.0
mp-761940,Li2MnCo3O8,0.0
mp-761953,Li4Nb2Fe3Cu3O16,0.0
mp-761963,Li4NbCo5O12,0.0
mp-761964,Li4Ti2V3Sn3O16,0.0
mp-761969,Li4Fe3Ni3(SbO8)2,0.0
mp-761970,LiCoPO4,2.8085999999999998
mp-761972,Li7Mn14O32,0.0
mp-764042,Co3(OF2)2,0.0
mp-764053,V3OF11,1.5253999999999999
mp-764080,CoOF,0.0
mp-764086,V4OF11,1.5131000000000001
mp-764090,Mn3(O2F)2,0.0
mp-764106,V4O7F5,0.0
mp-764110,Co2OF3,0.0
mp-764112,V2(OF)3,1.4706000000000001
mp-764113,V3OF11,1.9062000000000001
mp-764134,Li6Co5Ni3O16,0.0
mp-764138,Li3Fe(PO4)2,1.8362000000000003
mp-764155,Mn6OF11,0.44410000000000005
mp-764156,Mn3(O2F)2,0.0
mp-764158,Na7Mn10O24,0.0
mp-764161,Mn3OF5,0.0
mp-764166,Mn6O5F7,0.0
mp-764178,Li3V3P8O29,1.2246000000000001
mp-764182,Li6(CoO2)5,0.0
mp-764184,NaMn8O16,0.0
mp-767304,LiMn2F6,0.0
mp-767314,Li4Mn3Fe3(CuO8)2,0.0
mp-767338,V(SiO3)2,1.8442999999999998
mp-767340,LiMnO2,0.0
mp-767346,Mn5(Si2O7)2,0.0
mp-767349,LiVF5,1.9884000000000002
mp-767354,Li3Cr2P4HO14,3.1521999999999997
mp-767358,MnV3Sb2(PO4)6,0.0043999999999999595
mp-767408,Na2PRuCO7,0.0
mp-767410,Bi6P2O15,0.0
mp-767424,KLiSb3O8,0.28859999999999975
mp-767440,Li2MnFe2(PO4)3,1.5432000000000001
mp-767442,Fe3CuNi2(PO4)6,0.0
mp-767444,Li2Mn(CO3)2,3.8183999999999996
mp-767451,Li4V2SiO8,1.8587999999999998
mp-767469,Ni9S10,0.0
mp-767472,LiVSiO4,2.0159000000000002
mp-767479,Li2V2SiGeO10,1.8519999999999999
mp-767480,Li3Cu2SbO6,0.029800000000000715
mp-767497,Li9Ti7Nb5O30,0.0
mp-770889,La2WO6,3.2227000000000006
mp-770893,Li4Fe2O5,1.5990999999999997
mp-770898,Ti3Nb2V3O16,1.1099999999999999
mp-770906,Li3Mn(BO3)2,1.3438999999999999
mp-770910,Li3Mn(BO3)2,1.3618999999999999
mp-770914,Na3Li3Fe2P2(CO7)2,3.8263999999999996
mp-770920,Li4TiMn5O12,0.035600000000000076
mp-770962,VFe(PO4)2,0.0
mp-770969,LiVSn3(PO4)6,1.3638000000000001
mp-770978,Na2SiSbCO7,0.0
mp-770990,Li5Ni5(SbO6)2,0.0
mp-770991,Fe(SbO3)4,0.0
mp-771317,Ti5Sb5O17,0.0
mp-771334,Li3TlPCO7,0.0
mp-771351,FeCu(PO4)2,0.0
mp-771353,Li24Ti5Cr7O36,0.0
mp-771354,Li24Ti7Cr5O36,1.3141000000000003
mp-771355,Li5Ti2Mn8O20,0.0
mp-775167,FeCu(PO4)2,0.0
mp-775168,MnCu3(PO4)4,0.0
mp-775176,Li4FeTe2WO12,0.0
mp-775177,Co3Cu(PO4)4,0.0
mp-775179,MnCo3(PO4)4,0.0
mp-775181,Mn3Nb(PO4)6,0.0
mp-775191,Fe3Cu(PO4)4,0.0
mp-775200,MnNi(PO4)2,0.27970000000000006
mp-775201,Cr3Fe(PO4)6,0.0
mp-775205,Li3MnP2HO8,4.1739999999999995
mp-775206,VSb3(PO4)6,0.0
mp-775215,Li10Cr3Fe3(NiO8)2,1.6327000000000003
mp-775216,LiVTeO5,2.5248999999999997
mp-775217,CoSb3(PO4)6,1.6159999999999999
mp-775218,MnNb3(PO4)6,0.0
mp-775224,NbV3(PO4)6,0.9933000000000001
mp-775225,Nb3Ni(PO4)6,0.0
mp-775229,Li3MnV4O12,0.0
mp-775231,NiSb3(PO4)6,0.0
mp-775237,Li5Cr2Co3O10,0.0
mp-775239,Li4Mn3Fe(BO3)4,2.9219999999999997
mp-775243,Mn3Nb2Fe3O16,0.0
mp-775260,Li6CoCu3(PO4)4,0.0
mp-775263,Li6CoNi9O20,0.0
mp-775269,LiFe2(BO3)2,0.0
mp-775272,TiFe3(PO4)6,0.0
mp-775273,Cr2Te(PO4)3,0.0
mp-775275,Mn3Sb(PO4)6,0.0
mp-775285,Li2CoNi3O8,0.07960000000000012
mp-775289,Mn3CrCu2(PO4)6,0.0
mp-775290,Li4Nb2Cr3Cu3O16,0.0
mp-775297,FeCu3(PO4)4,0.0
mp-775307,Co3Ni(PO4)4,0.0
mp-779826,Li3MnV(PO4)3,0.0
mp-779839,Li4Ni2C4SO16,0.0
mp-779841,Li6Mn5Fe(BO3)6,2.6043999999999996
mp-779845,Li4Mn2Co3O10,0.0
mp-779848,V5P6WO24,0.0
mp-779851,Na4Ni2P(CO4)4,0.0
mp-779867,Li8Mn7Fe(BO3)8,2.8851999999999998
mp-779873,Li8Mn7Fe(BO3)8,2.9810999999999996
mp-779881,Fe4OF7,1.6630000000000003
mp-779883,LiV2P4(HO8)2,0.9866999999999999
mp-779889,Li5FeO4,3.0738999999999996
mp-779899,Fe6O7F6,0.0
mp-779900,Li4Co2Ni3O10,0.0
mp-779906,Ca3WO6,3.5523999999999996
mp-779907,LiMnPH2O5,3.4270999999999994
mp-779916,Li2CuPO4,1.2004000000000001
mp-779933,Fe3(OF2)2,1.2227000000000001
mp-779936,Na4Fe2P(CO4)4,0.0
mp-779940,Li4CoO4,1.1865999999999999
mp-779946,Fe3OF5,1.438
mp-779950,Mn3(O2F)2,0.0
mp-779958,MnOF,0.0
mp-779959,Li3Co2(NiO4)2,0.0
mp-779966,VOF3,2.876
mp-868347,LiNi(PO3)4,0.0
mp-868375,LiFePO5,0.0
mp-868379,Li4Mn3Cr2Cu3O16,0.0
mp-868490,Ti3Co2P6WO24,0.0
mp-868491,LiV3(OF3)2,1.4935000000000003
mp-868564,Li6Fe5CuO12,0.0
mp-868572,Li6TiFe5O12,1.5808999999999997
mp-868574,LiVCrP2(O4F)2,1.4584000000000001
mp-868582,Mn3VNi2(PO4)6,0.0
mp-868586,LiMn(PO4)2,0.0
mp-868600,Li3MnP2O9,0.0
mp-868628,MnV3Cu2(PO4)6,0.0
mp-868653,CrCu(PO4)2,0.0
mp-652044,Ce10Se19,0.0
mp-652046,Re3S4Br,1.6219999999999999
mp-690014,NiP2O7,0.0
mp-690120,La3(MoO5)2,1.7002999999999995
mp-690136,Mg4Al3(HO)17,2.4294000000000002
mp-690698,AgSbH2C2(NF3)2,2.8326000000000002
mp-691123,Li7Mn10O24,0.0
mp-693655,Ba4Sm7Si12BN27,0.0
mp-694541,FePO4,2.6559999999999997
mp-694547,MnPO4,0.0
mp-694554,Mn3(P2O7)2,0.0
mp-694876,NaSr2LaTi4O12,1.8852000000000002
mp-694897,Cr6PbO18,0.0
mp-694929,SrLaTa2(NO)3,1.0135000000000005
mp-695056,Na6CaZr(SiO3)6,4.314500000000001
mp-704604,Zr(MoO4)2,3.0967000000000002
mp-704626,FeAg(SeO3)2,1.9070000000000003
mp-704669,BaYb2(MoO4)4,0.0
mp-704727,Sr5V3O12F,3.9987000000000004
mp-704879,Ni5Te4(BrO6)2,2.7859999999999996
mp-704915,Na2Ni2(B4O7)3,3.7639000000000005
mp-704946,Fe2P4Pb3O16,2.4153000000000002
mp-704950,SrFeSn(PO4)3,2.7579000000000002
mp-704991,Mn3(PO4)4,0.11699999999999999
mp-705004,LiNi(PO3)5,0.0
mp-705011,LiFeP2O7,0.9664999999999999
mp-705147,Fe2GeSe4,0.0
mp-705293,Li3V2(PO4)3,1.9338000000000002
mp-705308,Cs2TiV3(PO6)3,2.0845000000000002
mp-705329,Li3Fe2(PO4)3,2.5284999999999997
mp-705331,LiNiP2O7,0.29269999999999996
mp-705340,LiVP2O7,2.0709999999999997
mp-705355,Li2Mn(PO3)5,1.5914000000000001
mp-705361,LiCrP2O7,1.9503000000000001
mp-705390,Li3Fe4P9O32,0.0
mp-705430,MnO2,0.0
mp-752693,Ba3(ClO)2,2.4532999999999996
mp-752695,SrCa2I6,3.6748000000000003
mp-752717,La2SiO5,4.5001999999999995
mp-752729,CaTb2O4,3.6321000000000003
mp-752734,LiAg2F4,0.031000000000000028
mp-752840,Na6SbO5,0.0
mp-752852,BaTi8O16,0.0
mp-752856,Li10Fe4S9,0.0
mp-752863,K4N2O5,0.08139999999999992
mp-752890,LiCu2C2O7,0.0
mp-752906,Ba4Pb3O10,0.0
mp-752918,NaTi6O12,0.0
mp-752933,Cu6OF11,0.0
mp-752943,Li4Cu(PO4)2,0.681
mp-752959,Sc5Cu5O13,0.0
mp-752983,CeZr7O16,2.264
mp-753021,Sr5Ir3O11,0.0
mp-753048,TiSnO4,1.8366999999999996
mp-753055,TbBi5O9,1.6101999999999999
mp-753108,Yb2TiO5,0.0
mp-753124,Ba5Bi3O11,0.0
mp-761996,Li2CoNi(PO4)2,2.5656999999999996
mp-762006,LiNiPO4,3.5683000000000002
mp-762021,LiNiPO4,3.6709000000000005
mp-762029,LiAg2F4,0.0
mp-762038,Li4CrCo3(PO4)4,1.0944000000000003
mp-762040,Na(WO3)10,0.0
mp-762041,MnFe3Co2(PO4)6,0.0
mp-762050,Li4Cu7(PO4)6,0.0
mp-762052,Na2Ga11O17,0.0
mp-762055,Li4Cr3Co3(SbO8)2,0.0
mp-762056,Fe3Co2Ni(PO4)6,0.0
mp-762071,Li4Co3Ni3(TeO8)2,0.0
mp-762142,Li2Fe3CoO8,0.0
mp-762162,MnVHPbO5,1.8768000000000002
mp-764206,NaV3O8,1.8390000000000002
mp-764234,Li13Mn3Nb2O16,1.0312999999999999
mp-764249,Ni17(As3O16)2,1.9753999999999996
mp-764261,NaLi2NiPCO7,3.9389000000000003
mp-764267,LiV3OF11,1.5191999999999999
mp-764268,Na7(WO3)8,0.0
mp-764270,Na3Ni5O8,0.0
mp-764272,Li2V(OF)2,1.6461000000000001
mp-764275,V2O3F2,1.5030000000000001
mp-764329,Ti3Fe3(SbO8)2,0.0
mp-764333,V3(OF3)2,0.0
mp-767498,Li10Ti11Nb6O42,2.1917999999999997
mp-767527,Li6Sb3S,0.0
mp-767534,Na2CuPCO7,0.0
mp-767553,Li7Sb2S,0.0
mp-767555,LiVSiO4,2.0519999999999996
mp-767557,Li3Mn(OF)2,1.4868999999999999
mp-767558,LiCo3Sb(PO4)6,0.0
mp-767564,Na5LiFe6(SiO3)12,2.7600000000000002
mp-767568,Li3Mn4(PO4)6,0.0
mp-767574,Li7Mn(O2F)2,2.3179999999999996
mp-767575,Li2V(SiO3)2,1.8921999999999999
mp-767576,Li6MnO4F,1.2066999999999999
mp-767581,Li3Cr4(PO4)6,0.0
mp-767585,Li3Cr4(PO4)6,0.0
mp-767590,Li2V(CO3)2,3.0208999999999993
mp-767608,LiVCr(P2O7)2,1.3979000000000001
mp-767609,LiVF5,2.2184999999999997
mp-767733,Li12VNi3P4(CO7)4,1.5977000000000001
mp-767735,Li12VCr3P4(CO7)4,1.9836999999999998
mp-767741,Li4Mn2Ni3Sb3O16,0.0
mp-767746,Li12Mn2Fe3O16,0.0
mp-771377,Li4AlCr3O8,3.2140999999999997
mp-771382,LiVBO4,0.399
mp-771390,In2WO6,2.9534000000000002
mp-771391,Mn5Sb3O16,0.0
mp-771399,Li2NiSn3(PO4)6,0.0
mp-771419,Li3NiAsCO7,3.3238999999999996
mp-771422,Li2FeCSO7,4.154100000000001
mp-771430,Li6Cr2O7,0.9789999999999999
mp-771436,Li3MnBAsO7,0.9886999999999999
mp-771437,Li5Co3(NiO5)2,0.48980000000000024
mp-771442,Li5Fe2Ni3O10,0.0
mp-771443,Tb2WO6,3.7684999999999995
mp-771445,Li4Ti5VO12,0.0
mp-771448,Na3SiNiCO7,0.0
mp-771451,Li5Mn2Cu3O10,0.0
mp-771452,Li4Mn3Nb2Cu3O16,0.018199999999999772
mp-771455,Li4Mn3TeO12,0.0
mp-771722,Li4Nb3V3(NiO8)2,0.0
mp-772302,Mg2FeO4,0.0
mp-772303,Sb2(PO4)3,0.0
mp-772304,Li2Ni(PO3)4,3.2316999999999996
mp-772305,Y2Bi2O7,0.0
mp-772318,Li2Cr2O7,2.4928999999999997
mp-772320,Li2CoSiO4,2.9162999999999997
mp-772325,MgCr3(SO4)6,0.17690000000000003
mp-772326,TiMn5(PO4)6,0.0
mp-772327,Mn5Cr(PO4)6,0.0
mp-772328,Mn2Fe3Co3O16,0.0
mp-775333,CrNi(PO4)2,0.0
mp-775334,V3Cu(PO4)4,0.24260000000000037
mp-775338,V3Cu2Ni(PO4)6,0.0
mp-775344,Li9(FeO4)2,0.046499999999999986
mp-775348,Na3Ni2P2(CO7)2,0.0
mp-775352,Li4Ti2Mn4(FeO6)3,0.0
mp-775356,Li4Cr3Cu2Sb3O16,0.0
mp-775357,LiV2F9,1.9104999999999999
mp-775386,Li4Mn3Fe2Co3O16,0.0
mp-775387,Li4Fe3Co2Sn3O16,0.0
mp-775388,Li5Mn7O15,0.0
mp-775389,Fe10O19F,0.0
mp-775398,Li4Mn3V3(NiO8)2,1.0070999999999999
mp-775401,Li4Co3Sn2Sb3O16,0.0
mp-775404,Na3Mn2P2(CO7)2,0.0
mp-775405,Na2NiPCO7,0.0
mp-775429,Ba4LiBi3O11,0.0
mp-775430,LiBi3(IO2)2,1.7551999999999999
mp-775436,Ti3Fe(PO4)6,0.0
mp-775445,Fe5(O4F)2,0.0
mp-775446,Li3(CoO2)5,0.26350000000000007
mp-776831,Fe3Cu2Te(PO4)6,0.0
mp-776834,Mn2Ni3Sb(PO4)6,0.0
mp-776835,Li4Mn2Cu3Sn3O16,0.0
mp-776836,BeCrO4,2.0972999999999997
mp-779981,Mn3(O2F)2,0.0
mp-779983,Li7(CoO3)2,0.9990999999999999
mp-779990,LiFe3(OF3)2,1.9676000000000002
mp-779992,Fe5(O4F)2,0.0
mp-779994,Li4MnSb(WO6)2,0.27649999999999997
mp-780007,Fe3(O2F)2,0.0
mp-780009,Li3Cr2Fe5O12,0.0
mp-780016,V4OF11,1.0614999999999999
mp-780023,Fe3(O2F)2,0.0
mp-780030,Fe3(O2F)2,0.0
mp-780034,Fe3(O2F)2,0.0
mp-780036,Mn4O7F,0.0
mp-780038,Mn2O3F,0.0
mp-780041,Fe3(O2F)2,0.0
mp-780043,Cu3Sb(PO4)4,0.0021999999999997577
mp-780044,LiCoOF2,1.076
mp-780045,Fe3(O2F)2,0.0
mp-780048,Ni3OF5,0.22099999999999997
mp-973666,KV5Se8,0.0
mp-995192,RbBaSiHO4,3.9077999999999995
mp-995194,KBaSiHO4,3.9285000000000005
mp-995202,HC6,0.0
mp-1017097,CsMg6Mo,0.0
mp-1017167,HfMg6C,0.0
mp-1017199,RbMg6Nb,0.0
mp-1017207,Mg6CdC,0.0
mp-1017230,Mg6BiB,0.0
mp-1017241,Mg6GaB,0.0
mp-1017277,Mg6GaC,0.0
mp-1017347,NaMg6Nb,0.0