task_id,pretty_formula,band_gap
mp-31049,NdO2,3.4112
mp-1080485,NdPt,0.0
mp-999335,NdRh,0.2267999999999999
mp-1586,NdSb,0.0
mp-1018815,NdSbPd,0.0
mp-4854,NdScGe,0.0
mp-975049,NdSmHg2,0.0
mp-12701,NdSn2,0.0
mp-567214,NdSnRh,0.0
mp-570,NdTe,0.0
mp-2550,NdTe2,0.0
mp-22331,NdTiGe,0.0
mp-974782,NdTlAg2,0.0
mp-30799,NdTlPd,0.0
mp-974744,NdZn2Ag,0.0
mp-20962,Ni23B6,0.0
mp-17383,Ni2Ge,0.0
mp-4091,Ni2Mo3N,0.0
mp-21536,Ni2Mo4C,0.0
mp-644742,Ni2Mo4N,0.0
mp-775542,Ni2PO5,0.0
mp-21008,Ni3Ge,0.0
mp-1100766,Ni3Pt,0.0
mp-1050,Ni3S4,0.0
mp-1017632,Ni3SnN,0.0
mp-19069,NiAgO2,0.0
mp-976763,NiAsO3,0.0
mp-763762,NiCO4,0.0
mp-1099,NiGe,0.0
mp-29752,NiGePt2,0.0
mp-973936,NiI,0.0
mp-13116,NiN,0.0
mp-19009,NiO,2.3008999999999995
mp-22619,NiP2,0.0
mp-1180046,NiS2,0.1979999999999995
mp-10264,NiTe,0.0
mp-20905,OsS2,0.0
mp-2452,P2O5,5.347200000000001
mp-28860,P2Se5,1.3347
mp-28885,PSe,2.2421
mp-558307,PW5O17,0.0
mp-20078,Pb2O3,1.0687000000000006
mp-22633,Pb3O4,1.133
mp-862868,PbBr2,2.5709
mp-862871,PbCl2,3.0963
mp-567542,PbI2,2.3829
mp-667338,PbN6,2.2747
mp-20725,PbO2,0.015500000000000291
mp-21276,PbS,0.4672000000000001
mp-2201,PbSe,0.4310000000000001
mp-22342,PbSeO4,3.1937999999999995
mp-393,Pd16S7,0.0
mp-1019238,Pd2N,0.0
mp-1336,PdO,0.0
mp-20599,PdPb2,0.0
mp-20250,PdS,0.0
mp-13682,PdS2,0.6036000000000001
mp-571383,PdSe,0.5940999999999996
mp-2418,PdSe2,0.5105
mp-863664,Pm2CuGe,0.0
mp-863722,Pm2IrRh,0.0
mp-863714,Pm2NiRh,0.0
mp-982772,Pm2PtAu,0.0
mp-1186518,Pm3I,0.0
mp-1186561,PmCd3,0.0
mp-862898,PmCdPd2,0.0
mp-1186552,PmDy3,0.0
mp-862905,PmGaAu2,0.0
mp-862912,PmHgAu2,0.0
mp-862933,PmMgAu2,0.0
mp-862939,PmMgCd2,0.0
mp-862941,PmMgRh2,0.0
mp-862955,PmSbRh2,0.0
mp-862961,PmSnRh2,0.0
mp-684619,Pr27Se40,0.0
mp-2714,Pr2Au,0.0
mp-982009,Pr2CdSn,0.0
mp-978102,Pr2Co12P7,0.0
mp-861498,Pr2HgPb,0.0
mp-20715,Pr2InGe2,0.0
mp-21870,Pr2InPd2,0.0
mp-558448,Pr2Ir2O7,0.0
mp-15179,Pr2S3,0.7774999999999999
mp-32689,Pr2Se3,1.4255999999999998
mp-32581,Pr2Te3,0.8827999999999996
mp-2980,Pr2Te4O11,3.2952
mp-975641,Pr3Cd,0.0
mp-975592,Pr3I,0.0
mp-605873,Pr4MgRu,0.0
mp-1484,Pr4Sb3,0.0
mp-616210,Pr5In11Ni6,0.0
mp-542465,Pr5Si4,0.0
mp-9537,Pr6Fe13Si,0.0
mp-699531,Pr7Mn8O24,0.0
mp-4308,PrAgAs2,0.0
mp-30181,PrAl3Ni2,0.0
mp-10622,PrAs,0.0
mp-999306,PrAu,0.0
mp-12569,PrB4,0.0
mp-12762,PrB6,0.0
mp-9028,PrBN2,2.1062000000000003
mp-13483,PrBPt4,0.0
mp-646,PrCd,0.0
mp-11610,PrCo4B,0.0
mp-976159,PrErIn2,0.0
mp-976151,PrErMg2,0.0
mp-2651,PrF3,7.5968
mp-978101,PrFeGe2,0.0
mp-976125,PrGaAu2,0.0
mp-976061,PrGe3,0.0
mp-981551,PrGe5,0.0
mp-1019094,PrGeAu,0.0
mp-20023,PrIn,0.0
mp-570611,PrInAu2,0.0
mp-946,PrIr2,0.0
mp-975932,PrLuIn2,0.0
mp-13326,PrLuSe3,0.4931999999999999
mp-975892,PrMgAg2,0.0
mp-7239,PrMgGa,0.0
mp-978086,PrMo3,0.0
mp-975655,PrNiGe2,0.0
mp-11344,PrO,0.0
mp-601,PrP,0.0
mp-1785,PrSb,0.0
mp-1018902,PrSbPt,0.0
mp-975797,PrSm3,0.0
mp-867735,PrSmO2,0.0
mp-975652,PrTe2,0.0
mp-975793,PrTmTl2,0.0
mp-460,PrZn,0.0
mp-20828,Pt3Pb,0.0
mp-20097,Pt3PbC,0.0
mp-13174,PtN,0.0
mp-288,PtS,0.3669000000000002
mp-762,PtS2,1.5425999999999995
mp-1115,PtSe2,0.8273999999999999
mp-581457,Rb15Hg16,0.0
mp-1105212,Rb2AgPS4,2.2505
mp-571293,Rb2BaNb2Se11,1.5116999999999998
mp-18556,Rb2Cd3S4,1.7838
mp-16818,Rb2Cd3Se4,1.4123
mp-29901,Rb2Cd3Te4,1.4415
mp-560562,Rb2CrF6,0.0
mp-1195291,Rb2Cu2Sb2S5,1.1621
mp-18006,Rb2Cu2SnS4,0.8784999999999998
mp-581600,Rb2FeI4,0.0
mp-1020707,Rb2GeB4O9,4.0842
mp-542629,Rb2Mo9Se10,0.0
mp-441,Rb2Te,1.8843
mp-570324,Rb2TeBr6,2.101
mp-28070,Rb2TeI6,1.6225
mp-1195363,Rb3Bi2Br9,2.8209
mp-29895,Rb3Bi2I9,2.4194
mp-975015,Rb3Ga,0.0
mp-1186859,Rb3Mn,0.0
mp-683902,Rb3Nb2AsSe11,1.1729
mp-16319,Rb3Sb,0.08969999999999989
mp-1194576,Rb3Sb2Br9,2.1926
mp-1209693,Rb3Sb2I9,1.9481
mp-978034,Rb3Sm,0.0
mp-1209358,Rb3Ta2AsS11,1.8816
mp-974745,Rb3Tm,0.0
mp-1020896,Rb4Ge3B6O17,3.8546
mp-542067,Rb4Ti3S14,1.2236000000000002
mp-556433,Rb5Tl3O,0.0
mp-540855,Rb6O,0.0
mp-17756,RbAg2SbS4,0.6094999999999999
mp-7767,RbAgF3,0.0
mp-23253,RbBi2,0.0
mp-1209327,RbBi3Se5,0.9825
mp-30041,RbBiS2,1.3438
mp-22867,RbBr,4.1927
mp-975411,RbBr3,0.0
mp-568643,RbC8,0.0
mp-1040,RbCd13,0.0
mp-23295,RbCl,4.8393
mp-11718,RbF,5.5244
mp-1179734,RbF3,2.1807000000000003
mp-1209628,RbGaSnSe4,1.3879
mp-862769,RbGe3,0.0
mp-1199892,RbGeB3O7,4.5769
mp-975170,RbHg3,0.0
mp-1219595,RbHgSbTe3,0.5587
mp-22903,RbI,3.7769999999999997
mp-21477,RbIn4,0.0
mp-601861,RbInS2,2.0972
mp-1192556,RbInTe3O8,3.0265
mp-10287,RbMnTe2,0.0
mp-1198591,RbMoPO6,2.8836
mp-1201070,RbNb4Br11,0.31499999999999995
mp-17945,RbPSe6,1.8608
mp-9060,RbPdF3,0.0
mp-975206,RbSbO3,0.0
mp-10621,RbSbS2,1.9475
mp-1189259,RbSbSe2,1.7798
mp-10782,RbTbSe2,1.9336
mp-569807,RbTiBr3,0.0
mp-981550,RbTmO3,0.0
mp-975138,RbWO3,0.0
mp-1209070,RbYbZnSe3,0.0
mp-558655,Re2PbO6,0.0
mp-631592,Re2RuBr,0.0
mp-16877,Re2W3C,0.0
mp-2473,Re3As7,0.0
mp-974458,Re3F,0.0
mp-1474,Re3P4,0.0
mp-974581,ReBiO3,0.0
mp-27340,ReCl4,0.0
mp-1025374,ReF6,0.0
mp-867792,ReIr3,0.0
mp-547271,ReO3,0.0
mp-867296,RePO5,0.0
mp-572758,ReS2,1.4428
mp-541582,ReSe2,1.1434000000000002
mp-12605,ReSi2,0.0
mp-974545,ReSn3,0.0
mp-17173,Rh2S3,0.19459999999999944
mp-974368,Rh3Pb,0.0
mp-1192175,RhSe2,0.0
mp-974467,Ru3Cl,0.0
mp-570880,RuCl3,0.0
mp-2030,RuS2,0.6675999999999993
mp-1922,RuSe2,0.3113999999999999
mp-27236,Sb2I2F11,0.0
mp-2136,Sb2O3,2.2239000000000004
mp-2809,Sb2S3,1.2828
mp-2160,Sb2Se3,0.7564000000000002
mp-6997,Sb2Te,0.0
mp-1201,Sb2Te3,0.2877000000000001
mp-27290,Sb2XeF14,1.943
mp-621960,Sb4Pb4S11,0.0
mp-23281,SbI3,2.1446000000000005
mp-1186928,SbPd3,0.0
mp-1078755,SbPt3,0.0
mp-973342,SbRh3,0.0
mp-22971,SbSBr,1.7647999999999997
mp-23041,SbSI,1.6354000000000002
mp-1209072,SbSeBr,1.4198
mp-22996,SbSeI,1.3775999999999995
mp-28051,SbTeI,0.8605999999999998
mp-685833,Sc14Cu14O37,0.0
mp-10911,Sc2Al3Ru,0.0
mp-862338,Sc2CuRu,0.0
mp-862339,Sc2GaAg,0.0
mp-972899,Sc2GaIr,0.0
mp-999257,Sc2MnC,0.0
mp-216,Sc2O3,3.8235
mp-401,Sc2S3,0.6433000000000004
mp-972861,Sc2TlTc,0.0
mp-10133,Sc3BPb,0.0
mp-28733,Sc3C4,0.0
mp-4755,Sc3Fe2Si3,0.0
mp-8577,Sc3GaC,0.0
mp-21035,Sc3PbC,0.0
mp-541558,Sc4Ge6Rh7,0.0
mp-607138,Sc5Bi3,0.0
mp-31025,Sc5NCl8,0.0
mp-510209,Sc5Pb3,0.0
mp-11201,Sc6FeSb2,0.0
mp-10446,Sc6NiTe2,0.0
mp-11754,Sc6Te2Os,0.0
mp-28321,Sc7CI12,0.0
mp-541594,Sc8Te3,0.0
mp-11237,ScAg,0.0
mp-10898,ScAlNi2,0.0
mp-1017631,ScBPd3,0.0
mp-11277,ScBe5,0.0
mp-867127,ScCdAg2,0.0
mp-867263,ScCdHg2,0.0
mp-21739,ScCoGe2,0.0
mp-769691,ScCoO3,0.0
mp-1101382,ScCrO4,0.21330000000000027
mp-1018149,ScCu2,0.0
mp-11412,ScGa2,0.0
mp-10212,ScGe2,0.0
mp-1129,ScIr,0.0
mp-2857,ScN,0.0
mp-3432,ScNiSb,0.2679999999999998
mp-12480,ScPPt,0.0
mp-1780,ScRh,0.0
mp-10712,ScRh3C,0.0
mp-862635,ScSbRh2,0.0
mp-862561,ScSbRu2,0.0
mp-3129,ScSi3Ni,0.0
mp-17092,ScSnPd,0.0
mp-1101375,ScTiO3,0.0
mp-13503,ScZn2,0.0
mp-862260,ScZn3,0.0
mp-972935,ScZnNi2,0.0
mp-867768,ScZnPt2,0.0
mp-2559,SeS,0.0
mp-4720,Si2Ni6B,0.0
mp-28945,Si2NiP3,0.0
mp-505071,Si2Pd9,0.0
mp-569815,Si2Ru,0.4067000000000007
mvc-4921,Si2SbO6,0.0
mp-988,Si3N4,4.245100000000001
mp-1863,SiAs,1.4518999999999995
mp-978553,SiAs2,0.8847999999999998
mp-972868,SiAu3,0.0
mp-569128,SiB3,1.4080000000000004
mp-753860,SiBi3O7,0.0
mp-978533,SiHg3,0.0
mp-2798,SiP,1.7395
mp-9996,SiP2,1.4173999999999998
mp-972794,SiSb3,0.0
mp-568264,SiSe2,2.1493
mp-1009813,SiSn,0.4112999999999998
mp-2755,SiTe2,0.0
mp-631362,SiTe2Os,0.0
mp-570334,SiW3,0.0
mp-867869,Sm2AgRu,0.0
mp-978519,Sm2AlCd,0.0
mp-1426,Sm2Fe17,0.0
mp-553121,Sm2IO2,0.0
mp-19816,Sm2In,0.0
mp-867142,Sm2IrPd,0.0
mp-566186,Sm2Mo2O7,0.0
mp-218,Sm2O3,3.7823
mp-672272,Sm2Pd2Pb,0.0
mp-978824,Sm2RuAu,0.0
mp-1403,Sm2S3,0.7441
mp-15081,Sm2Se3,0.3125
mp-684911,Sm2Te3,0.9168000000000004
mp-319,Sm2Tl,0.0
mp-978807,Sm2TlHg,0.0
mp-978815,Sm2TlZn,0.0
mp-1198078,Sm2ZrSe5,0.7862000000000005
mp-979266,Sm3Al,0.0
mp-1094052,Sm3AlN,0.0
mp-555639,Sm3OsO7,0.0
mp-978845,Sm3Sc,0.0
mp-571144,Sm3Te4,0.0
mp-972461,Sm3Zr,0.0
mp-581770,Sm4Al23Ni6,0.0
mp-1199065,Sm4GaSbS9,2.2433
mp-680615,Sm4In21Pd10,0.0
mp-1196183,Sm4InSbS9,2.1669
mp-567957,Sm4MgRh,0.0
mp-752785,Sm4U4O17,0.0
mp-680266,Sm5Br11,0.0
mp-672351,Sm6Br13,0.0
mp-2475,SmAg,0.0
mp-979972,SmAlCu,0.0
mp-1738,SmAs,0.0
mp-1106039,SmAs2Au,0.0
mp-30417,SmAu3,0.0
mp-6996,SmB6,0.0
mp-3428,SmBPd3,0.0
mp-17420,SmC10,0.0
mp-867157,SmCdHg2,0.0
mp-336,SmCo2,0.0
mp-5410,SmCo3B2,0.0
mp-1079121,SmCoC2,0.0
mp-13009,SmCrGe3,0.0
mp-770767,SmCuO3,0.12179999999999992
mp-978513,SmErMg2,0.0
mp-867879,SmHg3,0.0
mp-567912,SmHgPd,0.0
mp-978536,SmHoHg2,0.0
mp-978537,SmHoZn2,0.0
mp-20666,SmIn2Rh,0.0
mp-621351,SmInAu,0.0
mp-978544,SmLuTl2,0.0
mp-30779,SmMg3,0.0
mp-867181,SmMgHg2,0.0
mp-16734,SmNiAs,0.0
mp-999144,SmNiC2,0.0
mp-710,SmP,0.0
mp-1019110,SmPbAu,0.0
mp-1269,SmS,0.0
mp-2281,SmSb,0.0
mp-29647,SmSb2,0.0
mp-1447,SmSe,0.0
mp-15442,SmSi3Pt5,0.0
mp-571581,SmSnPd,0.0
mp-972520,SmSnRh2,0.0
mp-342,SmTe,0.0
mp-978507,SmTh3,0.0
mp-972522,SmTmZn2,0.0
mp-1219046,Sn2SbS2I3,1.1362
mp-566527,Sn2WO5,2.4096
mp-1041231,Sn3P3O13,0.0
mp-1371,Sn3Pd,0.0
mp-566092,Sn3WO6,2.2044
mp-978881,SnAs3,0.0
mp-978886,SnB,0.0
mp-29862,SnBr2,2.5388
mp-569152,SnCl2,3.0724
mp-995181,SnGe,0.21999999999999972
mp-5045,SnGeS3,1.6350000000000002
mp-27194,SnI2,1.7061000000000002
mp-23182,SnI4,2.0284
mp-2097,SnO,0.4096000000000002
mp-856,SnO2,0.6519000000000004
mp-20446,SnPt3C,0.0
mp-317,SnRh,0.0
mp-2231,SnS,0.9055
mp-1170,SnS2,1.5585999999999998
mp-691,SnSe,0.5159000000000002
mp-665,SnSe2,0.7018
mp-1883,SnTe,0.042799999999999734
mp-556498,Sr2Be2B2O7,4.079700000000001
mp-556076,Sr2Co2O5,0.16149999999999975
mp-29089,Sr2GeN2,0.053399999999999885
mp-1208761,Sr2SmTaO6,3.753600000000001
mp-5532,Sr2TiO4,1.9142
mp-1197632,Sr2V3Se5O18,2.4771
mp-1013583,Sr3Sb2,0.0
mp-3349,Sr3Ti2O7,1.8405
mp-29620,Sr5Bi3,0.0
mp-17720,Sr5Sn3,0.0
mp-704727,Sr5V3O12F,3.9987
mp-676519,Sr6Nb7O21,0.0
mp-758327,Sr7Bi23O40,0.0
mp-11224,Sr8Al7,0.0
mp-606379,Sr8Co8O23,0.0
mp-573523,Sr8Fe3N8,0.0
mp-30355,SrAg,0.0
mp-27233,SrAl,0.0
mp-1008755,SrB2,0.0
mp-242,SrB6,0.0
mp-30496,SrCd,0.0
mp-962076,SrCdSi,0.0
mp-542885,SrCrO4,2.8468
mp-30451,SrCuBi,0.0
mp-7390,SrGe2,0.0
mp-20074,SrIn2,0.0
mp-20497,SrIn2Ir,0.0
mp-542537,SrIn2Rh,0.0
mp-21901,SrIn4Ir,0.0
mp-21124,SrIn4Pt,0.0
mp-867171,SrLi2Sn,0.0
mp-571443,SrMgIn3,0.0
mp-20189,SrMnGe,0.0
mp-10564,SrN2,0.0
mp-17396,SrNi5As3,0.0
mp-2472,SrO,3.2748
mp-21162,SrPb3,0.0
mp-20489,SrPbO3,0.7933000000000003
mp-9926,SrRhF6,0.0
mp-1087,SrS,2.5006000000000004
mp-11815,SrSbAu,0.0
mp-2758,SrSe,2.231
mp-4092,SrSeO4,3.512
mp-8843,SrSiPd,0.0
mp-2879,SrSnO3,1.7365
mp-8539,SrSnP,0.0
mp-1958,SrTe,1.7623000000000002
mp-4651,SrTiO3,1.8488
mp-30877,SrTl2,0.0
mp-981311,SrTlHg2,0.0
mp-674944,SrUS2,0.0
mp-542431,SrV13O18,0.0
mp-12275,SrZnSb2,0.0
mp-631361,SrZr2Nb,0.0
mp-558760,SrZrS3,0.552
mp-864770,Ta2MoOs,0.0
mp-1079438,Ta2N,0.0
mp-780456,Ta2Nb3O12,0.0
mvc-4415,Ta2O5,2.7274000000000003
mp-864650,Ta2OsW,0.0
mp-14474,Ta2PtSe7,0.0
mp-1019270,Ta2TiN3,0.0
mp-38212,Ta2TlO6,0.0
mp-10142,Ta3B4,0.0
mp-567846,Ta3P,0.0
mp-3802,Ta4AlC3,0.0
mp-28964,Ta4FeTe4,0.0
mp-8046,Ta4N5,0.0
mp-1642,Ta5N6,0.0
mp-30439,Ta6Be15Cu8,0.0
mp-582719,Ta6Ni16Ge7,0.0
mp-869,TaAl3,0.0
mp-961679,TaAlPt,0.0
mp-1936,TaAs,0.0
mp-2676,TaBe2,0.0
mp-631635,TaCoSn2,0.0
mp-8338,TaF3,0.0
mp-961677,TaGaPt,0.0
mp-961692,TaInNi,0.0
mp-1279,TaN,0.0
mp-22709,TaNiB2,0.0
mp-30836,TaPd3,0.0
mp-567638,TaPt3,0.0
mp-1020,TaRh3,0.0
mp-979751,TaTiFe2,0.0
mp-979289,TaW3,0.0
mp-570655,Tb10B7C10,0.0
mp-530036,Tb11S16,0.0
mp-13432,Tb2AlCo2,0.0
mp-7024,Tb2C3,0.0
mp-570630,Tb2In16Pt7,0.0
mp-1056,Tb2O3,3.9006
mp-641945,Tb2Sb5,0.0
mp-755713,Tb2SbO2,0.0
mp-21712,Tb2Ti3Ge4,0.0
mp-972235,Tb3FeB7,0.0
mp-2321,Tb3Ge5,0.0
mp-541883,Tb3Ni13B2,0.0
mp-31102,Tb3ReO7,0.0
mp-972310,Tb3Si,0.0
mp-1200490,Tb4Al2O9,4.241199999999999
mp-1202576,Tb4GaSbS9,2.2742
mp-850834,Tb5Ti5O17,0.0
mp-30879,Tb5Tl3,0.0
mp-675130,Tb6PbSe10,1.7114999999999996
mp-3869,TbBRh3,0.0
mp-12615,TbBe13,0.0
mp-27923,TbCl,0.0
mp-2265,TbCo2,0.0
mp-11363,TbCu5,0.0
mp-11417,TbGa,0.0
mp-644529,TbGa2Co3,0.0
mp-867246,TbGa3,0.0
mp-24724,TbH2,0.0
mp-1206728,TbHg2,0.0
mp-672325,TbIn2Ni,0.0
mp-22382,TbInAg2,0.0
mp-22032,TbInIr,0.0
mp-623463,TbMn5Ge3,0.0
mp-30808,TbNi5,0.0
mp-4288,TbNiGe2,0.0
mp-769876,TbNiO3,0.0
mp-645,TbP,0.0
mp-1079305,TbPt,0.0
mp-1310,TbRh2,0.0
mp-1095657,TbSb2,0.0
mp-1025077,TbSe2,0.0
mp-31413,TbSnAu,0.0
mp-867290,TbTe,0.0
mp-30878,TbTl,0.0
mp-978911,TbYHg2,0.0
mp-2338,TbZn2,0.0
mp-4075,TbZrSb,0.0
mp-861610,Tc3Pd,0.0
mp-1002188,TcB,0.0
mp-9481,TcS2,1.1885000000000003
mp-20123,Te2Au,0.0
mp-1025876,Te2Mo3Se4,0.0
mp-613,Te2Pd3,0.0
mp-605028,Te2Pd3Pb2,0.0
mp-569766,TeI,0.7162999999999999
mp-570884,TeI4,1.7639000000000002
mp-1030732,TeMoSe,0.3348
mp-2125,TeO2,2.2279000000000004
mp-564,TePd,0.0
mp-669325,TeWCl9,0.0
mp-12584,Th2CrN3,0.0
mp-30639,Th2Fe7,0.0
mp-21428,Th2In,0.0
mp-2392,Th2Se5,0.7171000000000003
mp-3182,Th3B2C3,0.0
mp-570442,Th6Mg23,0.0
mp-178,ThAl,0.0
mp-1306,ThAl3,0.0
mp-1019357,ThAsSe,0.0
mp-571335,ThBi2,0.0
mp-22528,ThCrB4,0.0
mp-2215,ThHg2,0.0
mp-312,ThIr5,0.0
mp-643,ThO2,4.4187
mp-1019360,ThPSe,0.0
mp-570184,ThPd3,0.0
mp-568337,ThRh2,0.0
mp-22394,ThRu3C,0.0
mp-503,ThS,0.0
mp-21238,ThSi,0.0
mp-1025056,ThSi2Ru3,0.0
mp-760467,ThU8O18,0.0
mp-684733,Ti10O11,0.0
mp-760747,Ti11O18,0.0
mp-684731,Ti13S24,0.0
mp-999068,Ti2AlV,0.0
mp-1025149,Ti2B,0.0
mp-571126,Ti2BRh6,0.0
mp-12648,Ti2Be17,0.0
mp-10721,Ti2C,0.0
mp-30501,Ti2Cd,0.0
mp-999067,Ti2CoGe,0.0
mp-1025269,Ti2CoS4,0.0
mp-3951,Ti2CuS4,0.0
mp-861983,Ti2MnFe,0.0
mp-644259,Ti2NiH,0.0
mp-1025281,Ti2NiSe4,0.0
mp-865538,Ti2RePd,0.0
mp-865948,Ti2ReRh,0.0
mp-972275,Ti2ReRu,0.0
mp-865878,Ti2TcNi,0.0
mp-865931,Ti2TcPd,0.0
mvc-11251,Ti2ZnS4,0.0
mp-1187475,Ti3Be,0.0
mp-21457,Ti3Cu3O,0.0
mp-504733,Ti3Fe3O,0.0
mp-867750,Ti3PO7,0.0
mp-30851,Ti3Pt5,0.0
mp-21023,Ti3SnC2,0.0
mp-571457,Ti4NiBi2,0.0
mp-10734,Ti4O5,0.0
mvc-12157,Ti4ZnO8,0.0
mp-1045822,Ti5ZnO7,0.0
mp-32813,Ti9O10,0.0
mp-32544,Ti9O8,0.0
mp-1953,TiAl,0.0
mp-16482,TiAlAu2,0.0
mp-505540,TiAsRh,0.0
mp-962077,TiAuCl,0.0
mp-27785,TiBr2,0.0
mp-631,TiC,0.0
mp-22769,TiCoGe,0.0
mp-5967,TiCoSb,1.0520000000000005
mp-1216949,TiCoSn,0.0
mp-2454,TiFe2,0.0
mp-999002,TiFe2As,0.0
mp-998970,TiFe2Sb,0.0
mp-643945,TiFeH2,0.0
mp-866142,TiGaIr2,0.0
mp-7607,TiHgO3,1.3445999999999998
mp-980194,TiI,0.0
mp-865531,TiMn2Al,0.0
mp-866376,TiMn2Ge,0.0
mp-20952,TiNiSb,0.0
mp-554278,TiO2,2.6774000000000004
mp-980203,TiOs3,0.0
mp-5839,TiPO4,0.06289999999999996
mp-979261,TiPd,0.0
mp-996940,TiReN3,0.0
mp-2156,TiS2,0.0
mp-9920,TiS3,0.2284999999999995
mp-571651,TiSe,0.0
mp-2194,TiSe2,0.0
mp-865809,TiTc2Sb,0.0
mp-1907,TiTe2,0.0
mp-21289,TiZn3,0.0
mp-758418,Tl16O15F17,0.0
mp-559093,Tl2BiP2S7,2.1261000000000005
mp-1025299,Tl2CdTe4,0.07629999999999981
mp-18240,Tl2Cu2SnS4,0.22229999999999966
mp-29034,Tl2GeTe3,0.4684999999999997
mp-1188364,Tl2Hg3S4,1.634
mp-1105692,Tl2Hg3Se4,1.0512
mp-704535,Tl2Mo7O22,0.0
mp-1658,Tl2O3,0.0
mp-667,Tl2S,0.5885999999999996
mp-29711,Tl2Te3,0.7326999999999995
mp-31076,Tl2TeBr6,2.1666
mp-31077,Tl2TeI6,1.6797
mp-17172,Tl2TeS3,1.2603000000000004
mp-7684,Tl3AsSe3,0.8795999999999999
mp-972130,Tl3Cr,0.0
mp-1080016,Tl3Ir,0.0
mp-983235,Tl3Pb,0.0
mp-972082,Tl3Si,0.0
mp-5513,Tl3VS4,1.9533
mp-570339,Tl4CdI6,2.1721
mp-1191858,Tl4CuTeO6,0.5761000000000003
mp-174,Tl5Te3,0.0
mp-757458,Tl8Os8O27,0.0
mp-676274,Tl9SbSe6,0.7409999999999997
mp-4988,TlAsS2,1.7379000000000002
mp-30236,TlAsSe2,1.144
mp-27438,TlBiTe2,0.4683999999999999
mp-568560,TlBr,2.2965
mp-569639,TlCl,2.5365
mp-631546,TlCoBi,0.0
mp-631559,TlCoMo2,0.0
mp-541823,TlCr5S8,0.1426999999999996
mp-3407,TlCr5Se8,0.000399999999999956
mp-998147,TlCuCl3,0.0
mp-23415,TlFeI3,0.0
mp-4016,TlGaS2,1.7885
mp-17254,TlGaSe2,1.3725
mp-3785,TlGaTe2,0.5316999999999998
mp-1204377,TlHg6S4Br5,1.7886
mp-1202157,TlHg6Se4Br5,1.6013
mp-865274,TlInS2,1.3006000000000002
mp-22232,TlInSe2,0.7351000000000001
mp-22791,TlInTe2,0.5208999999999993
mp-1017982,TlN,0.0
mp-870,TlN3,1.7592
mp-11524,TlNi,0.0
mp-561066,TlS,0.8102
mp-28230,TlSbS2,1.6534
mp-567318,TlSbSe2,0.6743000000000001
mp-1836,TlSe,0.19799999999999995
mp-2556,TlSn,0.0
mp-2048,TlTe,0.12450000000000028
mp-631475,TlZn2Tc,0.0
mp-865283,Tm2AlOs,0.0
mp-979258,Tm2CdHg,0.0
mp-647243,Tm2Ga10Os3,0.0
mp-21486,Tm2In,0.0
mp-865354,Tm2IrPd,0.0
mp-865363,Tm2MgRu,0.0
mp-971705,Tm2MgTl,0.0
mp-1767,Tm2O3,3.9787
mp-555716,Tm2Ru2O7,0.0
mp-971979,Tm2ZnAg,0.0
mp-972244,Tm2ZnGa,0.0
mp-972274,Tm2ZnHg,0.0
mp-865236,Tm2ZnOs,0.0
mp-10351,Tm3GaC,0.0
mp-778664,Tm5Ti5O17,0.0
mp-16518,TmAl4Ni,0.0
mp-865402,TmAlCu,0.0
mp-1101,TmAs,0.0
mp-1017507,TmAu,0.0
mp-560,TmAu2,0.0
mp-15604,TmB2C,0.0
mp-10134,TmBPd3,0.0
mp-5438,TmBRh3,0.0
mp-865873,TmCdAg2,0.0
mp-1025408,TmCoSi2,0.0
mp-1025116,TmCu4Ag,0.0
mp-998911,TmGe,0.0
mp-24727,TmH2,0.0
mp-21177,TmIn3,0.0
mp-972410,TmLuPd2,0.0
mp-979073,TmMg2Sc,0.0
mp-971868,TmMgAg2,0.0
mp-865227,TmMgCd2,0.0
mp-11615,TmMnGe,0.0
mp-566643,TmMnO3,0.0
mp-348,TmPd,0.0
mp-2520,TmSb,0.0
mp-980392,TmScHg2,0.0
mp-11974,TmSnRh,0.0
mp-865249,TmSnRu2,0.0
mp-980648,TmThRu2,0.0
mp-515,TmTl,0.0
mp-673671,U11O5,0.0
mp-8894,U2Al3C4,0.0
mp-21269,U2AlCo2,0.0
mp-30176,U2AlCo3,0.0
mp-27661,U2Cl5O2,0.0
mp-21819,U2Cr30P19,0.0
mp-570800,U2MnN3,0.0
mp-1025230,U2Re2C3,0.0
mp-639876,U2SnRh2,0.0
mp-5505,U2TeN2,0.0
mp-1709,U2Ti,0.0
mp-680401,U2Zn17,0.0
mp-23196,U3Bi4,0.0
mp-541587,U3Cu2Se7,0.0
mp-972551,U3Nb,0.0
mp-567905,U3Ni3Sn4,0.0
mp-20328,U3Se4,0.0
mp-32590,U4N7,0.0
mp-504442,U4Re7Si6,0.0
mp-21063,U4S3,0.0
mp-622345,U5Ge3,0.0
mp-582635,U6Co,0.0
mp-1723,UAl3,0.0
mp-574122,UAl4,0.0
mp-16519,UAlNi4,0.0
mp-12072,UAu2,0.0
mp-13018,UCo4Sn,0.0
mp-907952,UCoSi,0.0
mp-30534,UCuP2,0.0
mp-580439,UFe5Si3,0.0
mp-20121,UFeSi,0.0
mp-20632,UGa2,0.0
mp-1070301,UGa3Ni,0.0
mp-623006,UGa5Ir,0.0
mp-21320,UGaNi,0.0
mp-20321,UGeRh,0.0
mp-21425,UNiSn,0.013399999999998968
mp-7830,UO,0.0
mp-1597,UO2,0.0
mp-1195782,UP2S7,0.009599999999999831
mp-30855,UPt3,0.0
mp-9937,USbSe,0.0
mp-19924,USeS,0.0
mp-2800,USi3,0.0
mp-7810,UVC2,0.0
mp-684675,V12P7,0.0
mp-640159,V2GaSn2,0.0
mp-690555,V2NO,0.0
mp-25620,V2O5,2.161
mp-769904,V2Si2O7,0.0
mp-865501,V2TcRu,0.0
mp-18879,V2ZnO4,1.6431999999999998
mp-971703,V3Ag,0.0
mp-1216491,V3As2O9,1.3012
mp-849227,V3CrO10,0.0
mp-1187753,V3Cu,0.0
mp-777133,V3CuO8,0.0
mp-2211,V3Pt,0.0
mp-865385,V3Re,0.0
mp-2567,V3Si,0.0
mp-504625,V3SiNi2,0.0
mvc-12584,V4ZnO8,0.6769999999999996
mp-10126,V5SiB2,0.0
mp-761359,V6AgO15,0.0
mp-619128,V6PbO11,0.0
mp-714972,V8O,0.0
mp-1491,VB2,0.0
mp-1002109,VCo,0.0
mp-980749,VFeRu2,0.0
mp-567636,VFeSb,0.3487
mp-569250,VIr,0.0
mp-865496,VIr3,0.0
mp-11531,VNi2,0.0
mp-714885,VO,0.7831999999999999
mp-19094,VO2,0.8578999999999999
mp-1114,VP,0.0
mp-8251,VP4,0.0
mp-18835,VPO4,1.7687
mp-12108,VPt2,0.0
mp-7821,VSb,0.0
mp-2540,VTc,0.0
mp-11687,VTe2,0.002400000000000624
mp-865486,VZnRu2,0.0
mp-2034,W2C,0.0
mp-27943,W2N,0.0
mp-765184,W3O7F,0.0
mp-23269,WCl3,0.0
mp-19443,WO3,1.1455
mp-1821,WSe2,1.4465
mp-865560,Y2AlZn,0.0
mp-1695,Y2C3,0.0
mp-755924,Y2CuO4,0.0
mp-13546,Y2Ge2O7,3.771900000000001
mp-541609,Y2Ge5Ir3,0.0
mp-19679,Y2Mo2O7,0.0
mp-2652,Y2O3,4.0531
mp-504560,Y2ReB6,0.0
mp-20643,Y2Ru2O7,0.0
mp-541289,Y2S3,1.4880000000000004
mp-39027,Y2U3O11,0.0
mp-13412,Y3Fe29,0.0
mp-21491,Y3GaCo3,0.0
mp-1189598,Y3GaS6,2.0516
mp-17381,Y3Ge4,0.0
mp-14244,Y3Si3Pd2,0.0
mp-981249,Y3Tm,0.0
mp-38494,Y4AsSe3,0.0
mp-1200885,Y4C7,0.6144999999999996
mp-675009,Y4CuTe8,0.0
mvc-3470,YAgO3,0.028999999999999918
mp-29736,YAlGe,0.0
mp-1095464,YAlPd,0.0
mp-933,YAs,0.0
mp-9880,YB2C,0.0
mp-23241,YBi,0.0
mp-865525,YCdHg2,0.0
mp-865520,YCdPd2,0.0
mp-865524,YCdPt2,0.0
mp-1294,YCo2,0.0
mp-24878,YCoO3,0.0
mp-980645,YErRh2,0.0
mp-24650,YH2,0.0
mp-30725,YHg2,0.0
mp-22056,YIn2Ni,0.0
mp-570765,YMg4Cu,0.0
mp-13090,YMgAl,0.0
mp-13172,YMgCu4,0.0
mp-5590,YMgGa,0.0
mp-2114,YN,0.1510000000000007
mp-7559,YNi4B,0.0
mp-11520,YNiSb,0.2962000000000007
mp-754671,YScO2,0.0
mp-12769,YSi2,0.0
mp-20557,YSiNi,0.0
mp-21069,YSiRu,0.0
mp-11571,YSn3,0.0
mvc-3431,YTiO3,0.0
mp-982007,YTmCu2,0.0
mvc-14736,YWO3,2.5451999999999995
mp-30885,YZn5,0.0
mp-676987,Yb14Ti10O41,0.0
mp-685044,Yb16S29,0.0
mp-645504,Yb23Mg4Cu7,0.0
mp-677392,Yb2Ce8O19,0.0
mp-10998,Yb2Ge2Ir,0.0
mp-865908,Yb2HgPb,0.0
mp-21267,Yb2InPd2,0.0
mp-1232217,Yb2MgS4,1.0526
mp-1232225,Yb2MgSe4,0.0
mp-2814,Yb2O3,0.0
mp-675912,Yb2SmS4,0.0
mp-570050,Yb2Sn,0.0
mp-977424,Yb2ZnPb,0.0
mp-3800,Yb3Al5O12,0.0