task_id,pretty_formula,band_gap
mp-766061,Fe4O5F3,0.09210000000000007
mp-766178,Sr2Sn(HO)8,3.7124
mp-766230,Rb2NaZn2H5(C2O7)2,4.0529
mp-766243,YZrO3,0.4851999999999999
mp-766396,Ti(PO3)4,2.4201
mp-766434,SnP2O7,3.7447
mp-766575,Li8TiS6,2.6980000000000004
mp-766623,LiCoSiO4,1.4593000000000005
mp-766670,LiNiPO4,3.4437000000000006
mp-766678,Li3Cr(Si2O5)3,3.5446
mp-767237,LiFe2(PO4)2,1.4168000000000005
mp-767633,Li4Ti9O20,1.8417
mp-767635,Li3Cr(PO4)2,1.7480000000000002
mp-767646,SrLiLa15(CoO8)4,0.8101000000000003
mp-767717,NaPrPCO7,0.1574000000000001
mp-769368,Rb4SnO3,2.0364000000000004
mp-772350,Cr2PO5,0.6496000000000004
mp-774286,Ti2Cr3O12,0.7834
mp-774376,Na5VO4,0.3119000000000001
mp-774458,Li4MnV3(P2O7)4,0.1835
mp-774715,Ba4LiNb3O12,2.4458
mp-774927,NdH4S2NO8,5.485600000000002
mp-774929,Na5Bi2P(CO4)4,0.4740000000000002
mp-774963,Na5VO4,0.4952999999999999
mp-775189,Li2MnFe(PO4)2,3.0175
mp-775561,Na2FePCO7,2.3492
mp-775597,Li3Cr2(PO4)3,2.7254
mp-775710,LiCrPO4,1.9332000000000005
mp-775825,Li2VCrO4,0.9269000000000004
mp-776811,Li3MnF6,1.5801
mp-777192,Fe2O3,0.9422
mp-777226,Li2MnVP2(O4F)2,0.6129000000000002
mp-777507,MnOF,0.0911000000000004
mp-777510,Fe10O11F9,0.07069999999999999
mp-777628,LiMnF3,3.7601
mp-777773,LaTa2NO5,2.224
mp-777777,PH18C6N3O,3.9086
mp-777980,LiCr2(PO4)3,0.2913000000000001
mp-780241,Na5GdO4,2.2016
mp-782658,V6O5F19,2.0247
mp-782660,LiMnP3H8O13,3.7556
mp-8341,NaGeSbO5,2.3243
mp-8449,Rb2Li2SiO4,3.8516
mp-8450,Rb2Li2GeO4,3.3651
mp-849256,LiCrPH2O5,1.9993
mp-849259,Li3Mn4(BO3)4,0.5529000000000002
mp-849326,Ta3AgO8,1.9953
mp-849364,Li2Mn2P2(H4O5)3,1.2564
mp-849365,YNb2NO5,2.4376999999999995
mp-849367,LiFeF3,3.4603
mp-849417,Co2OF3,0.4543
mp-849433,SrTiH4(OF3)2,3.9338
mp-849442,Li2Mn(Si2O5)2,3.5734000000000004
mp-849455,LiMn4(PO4)3,3.0575
mp-849469,Li2Mn2(SiO3)3,2.8560000000000003
mp-849480,LiMn4(PO4)3,2.8075999999999994
mp-849500,LiMnBO3,3.0704
mp-849527,Rb3InO3,1.8989
mp-849616,Li2Mn3(BO3)3,0.11070000000000002
mp-850012,LiFeF4,4.0037
mp-850104,Li3P3(WO6)2,3.5045999999999995
mp-850142,Li2Mn(Si2O5)2,3.4758999999999998
mp-850144,LiMn(PO3)4,1.2411
mp-850229,LiV2P4(HO8)2,0.8465000000000003
mp-850242,Li5Mn6(BO3)6,0.3657999999999999
mp-850243,Li5Mn6(BO3)6,0.2820999999999998
mp-850244,Li5Mn6(BO3)6,0.11109999999999998
mp-850257,Li3V2P4(HO8)2,0.9091000000000002
mp-850260,Li8MnFe7(BO3)8,3.4776
mp-850264,Li5Mn6(BO3)6,0.113
mp-850279,SrCaI4,3.3476000000000004
mp-850874,Cr19O48,0.0429
mp-850903,LiMnH8(SO6)2,1.09
mp-9510,Tl2PAuS4,1.2929000000000004
mp-9512,SrAl2P2(O4F)2,5.4887
mp-981103,Sr3CdO4,1.1647
mp-989407,YWN3,1.5167000000000002
mp-989459,B2(CN2)3,1.5147000000000002
mp-989460,B2(CN2)3,2.7415
mp-989461,B2(CN2)3,2.0875000000000004
mvc-15384,SbN,1.3441
mvc-15400,Zn2NiN2,0.10630000000000006
mvc-15495,Mg2Cr3O8,0.16400000000000015
mvc-15745,YBiO3,2.1193
mvc-15785,YSnF5,3.0621
mvc-4292,Y2Fe3(SiO4)3,3.8481
mvc-6375,WO2,1.3962000000000003
mvc-6377,MoO2,0.8441000000000001
mp-6267,LaSiBO5,4.1759
mp-6491,Na2ZnP2O7,4.0485
mp-6500,KRb2ScF6,6.5976
mp-650817,K(MoO2)4,0.2110000000000003
mp-652195,Sr4Fe6O13,0.05779999999999985
mp-6525,NaSn2(PO4)3,3.3552
mp-6567,LiNd(PO3)4,5.7983
mp-662527,Ce2Si2O7,0.01860000000000017
mp-6639,RbGeSbO5,2.4629
mp-669495,Nd14Cl32O,0.4239999999999995
mp-669578,Rb2Gd4Cu4S9,0.9045999999999998
mp-6698,Th2Cu(PO4)3,2.924300000000001
mp-676200,Eu(ErS2)2,0.4770000000000003
mp-684638,Al2S3,1.6697000000000006
mp-684670,PtCl2,0.07159999999999989
mp-684690,Sc2Se3,0.5374000000000003
mp-684706,LaO3,0.022299999999999983
mp-684712,Gd2S3,1.1633999999999998
mp-685105,SiO4,0.21600000000000003
mp-721926,Co3(P2O7)2,0.2188000000000001
mp-722270,ZrH7CN4F5,4.3833
mp-7260,P4S5,2.5252000000000003
mp-7277,Tl2GeS3,1.7699000000000005
mp-735602,NiH10(SeO5)2,3.2845
mp-762253,V(CO3)2,0.773
mp-762264,Li2CoSiO4,2.6016000000000004
mp-762932,Li4(NiO2)5,0.4134000000000002
mp-762992,LiMnF3,3.3421
mp-763047,Fe4O5F3,0.06929999999999993
mp-763086,FeOF,0.4344999999999999
mp-763309,Li2CoSiO4,2.7283
mp-763313,LiCoSiO4,1.3956
mp-763377,LiFe(CO3)2,2.2938
mp-763390,LiCoCO4,0.921
mp-763618,Li2Mn3SbO8,0.1025999999999998
mp-763734,LiFeSiO4,2.9798
mp-764082,V3OF11,2.2065
mp-764127,Cr4OF11,0.9424
mp-764165,Li2TiMn2O6,1.0896000000000003
mp-764296,V2OF5,1.561
mp-764302,RbLiV(PO4)2,1.9844
mp-764306,Li3Mn2F9,2.0384
mp-771590,Na3CrPCO7,2.5348
mp-771591,Mn(IO3)2,2.6730000000000005
mp-771592,Li3CoPCO7,2.9138999999999995
mp-771594,Na3VPCO7,2.1087
mp-771596,NbFe5(PO4)6,2.1476
mp-771598,V(SO4)2,0.8851
mp-771599,Li3FePCO7,4.0108
mp-771600,Na3FePCO7,3.5016
mp-771601,Li3VPCO7,2.7478
mp-771602,Li3NiPCO7,3.796300000000001
mp-771604,Li3CrPCO7,2.4992
mp-771610,Li4Fe3CoO8,1.2034000000000002
mp-771616,Li7Mn5O12,0.7342
mp-771617,Li7Fe5O12,0.018299999999999983
mp-771622,Li4TiMn3O8,0.21639999999999995
mp-771633,Li3Mn(PO4)2,0.2830000000000004
mp-771668,TiV4FeO12,0.7023000000000001
mp-771673,Li4Fe3NiO8,1.0739
mp-771685,V4SnO12,2.5109
mp-771833,Sr2LaCl7,4.3991
mp-771889,Sr5La2Cl16,4.1002
mp-772170,CaLaI5,2.1489000000000003
mp-772190,Li6Ti2O7,4.043
mp-772192,CuPO3,1.5535
mp-772193,La(HO)3,4.2526
mp-779354,Fe6OF11,0.3427
mp-780641,MnCrO4,1.1909999999999998
mp-780646,LiMnPO4,3.1544
mp-780647,V3O5F,0.6140000000000003
mp-780671,SrTaNO2,0.7380999999999993
mp-780687,Co3(OF2)2,0.04300000000000015
mp-780703,LiCu2PO4,0.7725
mp-780740,Fe4OF7,0.11509999999999998
mp-780751,Li3Mn2Cr2O8,0.1288999999999998
mp-780758,Li2MnP2O7,3.705200000000001
mp-780772,Ta2O5,3.0165
mp-780782,Fe3(OF2)2,1.3885999999999998
mp-780798,LiMn2Cr2O8,0.6604000000000001
mp-780842,Li24TiCr11O36,0.8693
mp-780862,Mn2OF3,0.15270000000000006
mp-780869,Tm2WO6,3.2151
mp-780900,LiMn3(BO3)3,0.4302999999999999
mp-780910,Li2Mn3(BO3)3,0.2126999999999999
mp-781082,SrCrO3,0.5876000000000001
mp-781289,NaV13O18,0.5449000000000002
mp-781622,Lu(HO)3,4.341
mp-863695,PmI3,2.0675
mp-868388,LiCoO2,0.39659999999999984
mp-8810,SrZn2(PO4)2,3.9629
mp-8947,Sr(BS2)2,2.8242000000000003
mp-9047,RbBS3,2.3887
mp-909,As2Se3,1.4392
mp-9092,Er2S3,1.1634999999999995
mp-975422,RbF3,0.9268999999999998
mp-978695,SmFeP,0.10040000000000047
mp-979264,Te6RhCl3,1.2547
mp-989530,SrTcN3,0.5220000000000002
mvc-1,NiS2,0.08729999999999992
mvc-10887,CaV2O4,1.4786
mvc-10891,Mg(CoO2)2,0.5904000000000003
mvc-11011,Al(CoO2)2,0.13090000000000046
mvc-11012,La2MgTiO6,3.2433999999999994
mvc-11053,La2TiZnO6,3.0898000000000003
mvc-11633,VPO5,1.7896
mvc-11754,V2S5,0.5896
mvc-11797,Ca(CuO2)2,0.3517999999999999
mvc-11984,CaCr2O4,2.2317
mvc-11997,Ca(CoO2)2,0.9175999999999996
mvc-12012,Co(SiO3)2,0.20620000000000016
mvc-12027,MgV2O4,1.2110000000000003
mvc-12039,Fe5O7,1.1318
mvc-12053,CaV2O4,1.5029
mvc-12055,Mn2ZnO4,0.5568
mvc-12165,MgTiO2,0.1014999999999997
mvc-12218,Ca(FeO2)2,0.9051999999999998
mvc-12242,VZnO2,0.5188999999999995
mvc-12244,CaMn2O4,0.6736999999999997
mvc-12283,MnO2,0.8253999999999999
mvc-12303,Y2(NiO3)3,0.0060999999999999934
mvc-12553,CaV2O4,1.5898999999999992
mvc-12557,Mg(FeO2)2,1.6186000000000005
mvc-12562,MgMn2O4,0.5791
mvc-12563,Mn2ZnO4,0.2971999999999997
mvc-12573,Zn(FeO2)2,1.7509
mvc-12576,CaMn2O4,0.5449000000000002
mvc-12582,Ca(FeO2)2,1.6033
mvc-12591,MgMn2O4,0.6440000000000001
mvc-12603,Mg(FeO2)2,1.8052
mvc-12607,ZnCr2O4,2.4059000000000004
mvc-12618,V2ZnO4,1.6408
mvc-12619,MgCoO2,1.5104999999999995
mvc-12622,CaV2O4,1.5470000000000002
mvc-12635,MgCrO2,0.3106
mvc-12656,ZnNiO2,0.9556
mvc-12657,MgFeO2,1.4854000000000005
mvc-12659,Zn(FeO2)2,0.8526000000000002
mvc-12661,Zn(FeO2)2,1.6948000000000003
mvc-12664,MgNiO2,2.8628
mvc-12792,ZnCr2F12,1.2360999999999998
mvc-12902,Mg(FeO2)2,1.8012
mvc-12912,Y2Cr3O12,2.1334
mvc-13134,CrO3,1.4176
mvc-13175,Ta2MnZnO8,1.1542
mvc-13330,V3O7,1.4381
mvc-13435,MgCoO2,1.5467000000000004
mvc-15430,CaMn2O4,1.7035999999999998
mvc-15871,AlCoO3,1.1284
mvc-15883,VZnO3,1.0941
mvc-15888,MgVO3,0.9187000000000004
mvc-15895,W2O5,1.1666
mvc-15901,MnAlO3,0.6812000000000005
mvc-15903,AlVO3,1.729
mvc-15909,AlFeO3,1.6813000000000002
mvc-15991,Mo3O8,1.2604000000000002
mvc-16004,Ti2Zn3O7,2.5493
mvc-16013,Mg2W3O8,0.7349000000000006
mvc-2186,TeO3,1.3563999999999998
mvc-3317,Zn2Ni3O8,0.9535999999999998
mvc-3380,ZnCoF4,3.1785
mvc-3381,Re2O7,0.05119999999999991
mvc-3451,YWF5,1.5307999999999995
mvc-3460,YSbO3,1.4677999999999995
mvc-3468,YCuO3,0.01670000000000016
mp-1017514,MgSiN2,4.1797
mp-1019578,Ca5(SiN3)2,2.4590999999999994
mp-1029349,Y4Se3N2,1.4004000000000003
mp-1044582,Mg(BiO2)2,1.4444000000000008
mp-1185942,MgS,3.3864
mp-1196526,Nb6I11,0.2014999999999998
mp-25181,Er2WO6,3.8181
mp-27442,RbCrI3,0.15979999999999972
mp-27699,S3(NCl)2,1.7123000000000002
mp-28328,RbI3,1.8571
mp-35785,Y2CdS4,1.1109000000000002
mp-3822,SrCO3,4.4254000000000016
mp-3828,BaAl2O4,3.9419
mp-3858,NaTaO3,2.6172000000000004
mp-4155,Ca2Nb2O7,1.4400000000000004
mp-504662,SbClO,3.0971
mp-540351,V2P3O10,0.8922000000000003
mp-540844,Ni(NO3)2,3.395
mp-554694,CaCr2O4,2.7875000000000005
mp-559691,Ca2Al2SiO7,4.2848000000000015
mp-569867,SrP3,0.3689
mp-5709,Tl3PO4,2.6398
mp-573608,CdI2,2.3845
mp-620372,Rb2Se5,0.8362
mp-626104,U3(HO5)2,1.7838999999999998
mp-632480,Ag3SI,0.2711999999999999
mp-638009,RbPPbS4,2.3703
mp-639511,SiO2,5.6509
mp-649905,V2Te2O9,2.5243
mp-6706,TiTlPO5,2.6472999999999995
mp-6708,RbNb2PS10,1.5518
mp-673837,Ba8Bi4O17,0.7450000000000001
mp-673849,Si6O13,0.04090000000000005
mp-675493,Sb8Cl27F13,1.0425
mp-691045,Na5Ce3Ti6Nb2O24,0.013799999999999812
mp-691074,SrPrGaCuO5,0.24230000000000015
mp-691111,Fe2CoO4,1.2969
mp-691128,Sr2V3O9,1.7399
mp-691136,Ti2Fe4O9,0.9363
mp-694557,LiMn(PO3)4,0.0423
mp-695900,SbHCSO3F8,4.5118
mp-695906,RbSmH8(SO6)2,5.1941
mp-696500,Nb6HI11,0.1419999999999999
mp-696992,AgP2H8SN7O2,3.21
mp-698622,Sr10Mn5Zn9(AsO)10,0.036299999999999784
mp-699686,Sr51W12N56O3,0.12019999999999965
mp-704962,Li3Mn3(PO4)4,0.3909
mp-704992,RbCoO2,0.5144000000000002
mp-720526,H4CN2O,3.5795000000000003
mp-722832,PH3NF5,7.0655
mp-7423,Sm3ReO8,1.7634000000000003
mp-743693,NiH4(IO4)2,3.0206
mp-743715,TiH10N3F5,0.9533
mp-745190,CoH12SO10,2.5337
mp-746672,NiP2H2O7,4.3884
mp-746730,FeP4O11,3.5781
mp-746739,SrFe3P4HO16,2.3865
mp-752575,BaSrI4,3.2505
mp-753378,TaGaO4,3.2764999999999995
mp-753813,Ca(ClO3)2,5.0397
mp-758179,LiCu2PO4,0.5
mp-758966,LiBi(PO3)4,4.629
mp-758989,P2HNF4,4.8761
mp-758990,LiCuPO4,0.24239999999999995
mp-759029,LiBiP2O7,3.3655
mp-759099,Li3Sb(PO4)2,2.9066
mp-759122,LiBiP2O7,4.396
mp-759187,Li3Ti2(PO4)3,0.028500000000000195
mp-759227,Li3Sb2(PO4)3,3.5668
mp-759419,LiSb(PO3)4,4.1158
mp-759485,LiSb(PO3)4,4.0868
mp-759587,LiSb(PO3)4,4.1999
mp-759596,LiBiP2O7,4.0556
mp-759627,LiCuPO4,0.2898000000000001
mp-759657,Li3CuF6,0.4472999999999999
mp-759866,TeH3CCl3,2.9222
mp-760425,Tb2Zr2O7,2.7126
mp-760461,LuBO3,4.2791
mp-760484,TmBO3,4.5014
mp-761805,LiCoPO4,3.071
mp-761898,Sb3H18C6N,3.3747
mp-763706,LiMn(PO3)3,3.9619
mp-764241,VOF3,3.2211
mp-764307,LiMn3OF5,1.7959000000000005
mp-764318,Li2VFe(P2O7)2,1.7145
mp-764392,MnFeCo(PO4)3,0.2097
mp-764416,Li4Mn2(PO4)3,0.0918000000000001
mp-764453,LiFe4(BO3)4,1.4448
mp-764485,Li6MnV3(PO4)6,0.4297
mp-764514,LiFe2(BO3)2,1.5942999999999998
mp-764520,LiFe2(BO3)2,1.3886000000000005
mp-764694,LiVF5,1.9896
mp-764988,Li4V3P8O29,0.8612
mp-764989,Li4V3P8O29,0.8959999999999999
mp-764990,Li4V3P8O29,0.9562
mp-764991,Li3V3P8O29,0.4419
mp-765319,LiMnOF2,1.3964
mp-765325,Li2V2OF6,1.8984
mp-765377,Li2VFeP2(HO5)2,1.7307
mp-765390,Mn6OF11,0.29179999999999995
mp-765391,LiNiPO4,3.2237
mp-766639,LiNiPO4,3.4939
mp-766645,LiNiPO4,3.4791
mp-766646,LiNiPO4,3.5026
mp-766653,V6PbO15,0.6193
mp-766667,Li4V3P8O29,1.0252
mp-766675,Li3V3P8O29,0.5936
mp-766732,Li4V3P8O29,1.0944
mp-767049,LiVSiO4,2.1714
mp-767085,P3W2O13,1.8082
mp-767141,Sn(PO3)2,3.7518
mp-767351,V5(P3O11)2,0.06190000000000007
mp-767434,Li2Co2(SO4)3,2.7744
mp-767436,P3W2O13,2.1009
mp-767437,Co3(P2O7)2,0.339
mp-767450,CoPO4,1.1365999999999998
mp-767614,Li3Mn4(PO4)6,0.05230000000000001
mp-7709,ZnF2,3.5604
mp-771580,Li4Fe3TeO8,0.8782999999999994
mp-772812,Lu2GeO5,3.5859
mp-772821,Rb3LuO3,2.1896
mp-772918,Sr3TeO6,2.5037
mp-773346,Cr3(CuO6)2,0.12879999999999991
mp-773435,Li3Cr(PO4)2,2.0410000000000004
mp-773542,Li3V(PO4)2,2.6842
mp-773795,Mn2Cr3O12,0.6855
mp-773796,Cr3(FeO6)2,1.7861
mp-775182,Li3Mn4(BO3)4,0.3759000000000001
mp-775266,LiCr(PO3)4,2.7593
mp-775325,Li6MnV3(PO4)6,0.44920000000000027
mp-775350,LiVSiO4,2.6672
mp-775374,Li3MnV(PO4)3,0.4086000000000003
mp-775378,Li8Mn3Fe5(BO3)8,3.4139000000000004
mp-775486,Li3Sb2(PO4)3,3.5203999999999995
mp-776781,Li5FeS4,0.7655999999999998
mp-776787,V2(OF)3,1.5224
mp-776788,Li2MnVP2(O4F)2,0.3185000000000002
mp-776789,Li5Mn6(BO3)6,0.23389999999999975
mp-776792,NaV3P2O13,2.1006
mp-776796,VOF2,1.7098
mp-776797,Li5FeS4,0.5967999999999998
mp-777900,Li3FeF6,4.0719
mp-777937,Li3Mn4(BO3)4,0.3984999999999999
mp-777944,Li3Mn4(BO3)4,0.2810000000000001
mp-777949,LiCr(PO3)4,2.2488
mp-777978,BaYF5,6.6784
mp-777982,Li32Ti13Cr3O48,1.4592
mp-777983,Li32Ti13Cr3O48,1.3658
mp-778010,LaTa2NO5,2.0492
mp-778288,SrLi4NiO4,2.6467
mp-778343,Li32Ti3Cr13O48,1.0460000000000005
mp-778374,LiMn2(BO3)2,0.4484000000000001
mp-778403,LiMn2(BO3)2,0.389
mp-778460,Li3Bi(PO4)2,4.2483
mp-778542,Li32Ti3Cr13O48,0.9587
mp-778553,LiMnF4,1.0038
mp-778559,Mn6OF11,0.07440000000000002
mp-778585,Li5Mn8(BO3)8,0.1867000000000001
mp-778612,Na3CuO2,1.5675
mp-778619,Na4Co2O5,0.9819
mp-780748,LiVCoO4,2.1929
mp-781901,NiH18(IN)6,0.9113
mp-781957,Li3Mn4(BO3)4,0.008899999999999908
mp-781997,SmH10S3N3O11,5.4745
mp-782002,SmH8S3N3O10,5.3137
mp-782062,YNb2NO5,2.5478
mp-782726,LiFeP2O7,1.4647
mp-783911,LiV2OF5,1.1741999999999997
mp-8190,Tl2SiS3,2.3594
mp-849661,La2Nb2N2O5,1.6780000000000002
mp-849665,Mn3OF8,0.124
mp-849727,La2Nb2N2O5,1.6707
mp-849748,NaMgP3(H4O5)2,6.4413
mp-849775,Li2Cu(Si2O5)2,0.7199
mp-849783,TeH14C3S3(N3F2)2,2.2372
mp-849786,ZnP2H15C4NO8,4.7495
mp-849790,SiH21C6N2OF5,5.644399999999999
mp-849952,LiFe4(BO3)4,1.6864
mp-850021,NaFe11O17,0.3294000000000001
mp-850027,CuH12N2(OF2)2,0.0116
mp-850456,LiMnP2O7,0.4272
mp-850459,LiMnP2O7,0.11709999999999998
mp-850463,Li3Mn2(P2O7)2,0.15539999999999998
mp-850465,Li3Mn2(P2O7)2,0.17080000000000006
mp-850466,LiMnP2O7,0.2299
mp-850476,Li5Mn4(P2O7)4,0.042399999999999986
mp-850768,Li9V6(P8O29)2,0.5789000000000001
mp-850770,Li9V6(P8O29)2,0.9971
mp-851016,LiFePH2O5,3.4895000000000005
mp-851062,LiFeSiO4,2.9513000000000003
mp-851063,LiMnPO4,3.1409
mp-851065,LiNiPO4,2.5716
mp-851068,CoPO4,1.1979
mp-9322,Rb2Sn2Se5,0.8418000000000001
mp-961706,TiSiPt,0.9930000000000004
mp-9698,Rb6AlSb3,0.28679999999999994
mvc-11573,VO2,1.0171
mvc-12662,MgMnO2,1.8037
mvc-13741,ZnCrO2,0.2012999999999998
mvc-3905,Zn3Cr2(SiO4)3,3.2794
mp-5126,ZnSO4,3.8158
mp-5145,Ag3AsSe3,0.8452999999999999
mp-5156,ThP2O7,5.3893
mp-5189,AlAsO4,3.865
mp-5560,Cd3(BO3)2,1.4544
mp-5575,GdTaO4,3.2686
mp-5594,Sc2Si2O7,4.2797
mp-5692,TbRhO3,0.8724000000000007
mp-5725,CuAg3S2,0.2464000000000004
mp-573,Ni3Se4,0.006199999999999761
mp-5933,BaTiO3,1.7270000000000003
mp-6023,Tl2Sn(AsS3)2,0.9788999999999994
mp-604,Nb2O5,2.5212
mp-6062,YAl3(BO3)4,5.351400000000001
mp-6064,Sr3MgPtO6,2.6841000000000004
mp-608348,NbFeO4,2.0528000000000004
mp-639705,SiO2,5.4941
mp-639734,SiO2,5.4506
mp-675832,SrCeN2,0.9146
mp-675856,Yb(GdS2)2,1.4227999999999996
mp-675892,Yb(SbTe2)2,0.5893000000000006
mp-677237,Y3U2O10,0.14669999999999914
mp-705480,MnF4,0.10239999999999982
mp-761914,LiAgF4,1.0201999999999998
mp-762197,RbAl(H2N)4,2.5643
mp-762399,Li2Cr(SiO3)2,2.4339
mp-7624,Er2Si2O7,4.913
mp-762400,Li2CrSiO4,1.5431
mp-762401,LiCo(CO3)2,0.33730000000000004
mp-762404,LiMn3O6,0.7913999999999999
mp-762409,Li2Mn3O6,0.7098
mp-762413,Li3CrSiO5,2.9626
mp-762414,Li3(FeO3)2,0.29700000000000004
mp-7691,YB4Mo,0.2821999999999996
mp-770622,Li24Mn11CrO36,1.2311
mp-770628,Li2CrO3,0.5259
mp-770779,VCrO3,1.6264000000000003
mp-770963,V2Ni3Te3O16,0.4577
mp-770996,Cs2CeO3,1.8999
mp-771053,Mn5Cr3O16,0.4473999999999999
mp-771121,La2HfO5,4.0802000000000005
mp-771324,Na3CaPCO7,4.190200000000001
mp-780001,Co6O5F7,0.07769999999999988
mp-780033,TbNbO4,3.4041
mp-780210,Li3Mn2Fe(BO3)3,2.6509
mp-853247,FeBO3,0.5711000000000002
mp-8537,S(OF)2,5.8812
mp-8590,K2HfF6,6.7637
mp-8603,RbAgO,1.4174
mp-861504,PrBO3,4.652
mp-8616,ScAg(PS3)2,2.0296
mp-8622,Rb2PtSe2,1.0034
mp-862773,TeI2,0.7143999999999999
mp-862792,Pr3AgGeS7,1.8793
mp-862800,PrI3,1.9521
mp-862986,PmBr3,2.8814
mp-868032,Pb13(N2O13)2,0.052700000000000184
mp-9750,SbPO5,2.5466000000000006
mp-977417,NdB2HF10,7.788500000000001
mp-985587,Al2O3,4.8041
mp-986716,Sr3N2,0.3481000000000001
mp-990436,ScClO,2.6309
mp-996952,LaAuO2,2.7834000000000003
mp-996982,AgBiO2,1.1408
mp-997533,Li7Mn7P6(O8F)3,2.9593
mp-997539,Li(CoO2)3,0.6197000000000001
mp-998150,CaTlF3,4.4830000000000005
mp-998230,LiSnCl3,3.9836
mp-9984,SnS2,1.4855
mp-998417,CsSrI3,3.8504
mp-998527,NiBiO3,0.7130000000000001
mp-998537,ZnAgF3,1.4951
mp-998711,TlGeF3,3.3593
mp-998743,TlGeCl3,3.3207
mp-998746,TlGeBr3,2.2566
mp-998758,TlHgF3,2.1963
mp-998759,TlCdF3,3.7002
mp-998929,K2O,1.85
mvc-13642,VF4,2.209
mvc-13858,YAgO3,0.07339999999999991
mvc-13894,Ta2O5,2.96
mvc-13900,YCuO3,0.09140000000000016
mvc-14150,Mg(CoO2)2,1.4899999999999998
mvc-14154,YMoO3,2.7288999999999994
mvc-14215,CrF5,1.1817000000000002
mvc-14221,V3Zn2O8,1.2912
mvc-14287,Ti3Zn2O8,2.4535000000000005
mvc-14293,Mg2Ti3O8,2.5541000000000005
mvc-14312,VF5,2.7003000000000004
mvc-14313,Mg2Mo3O8,1.3001999999999998
mvc-14327,ZnCoF5,1.5869
mvc-14332,ZnNiF5,0.9996
mvc-14482,Ti2ZnO5,3.1746000000000003
mvc-14687,YSbO3,1.3025000000000002
mvc-14734,TeO3,0.5426
mvc-14931,MnO2,0.0371999999999999
mvc-14986,CaNiWO6,1.242
mvc-15067,Nb2Co2O9,0.2219
mvc-15081,Zn(Mo3O8)2,0.7867000000000002
mvc-4610,Y(CoO2)2,0.2719000000000005
mvc-4611,Y(FeO2)2,0.04789999999999983
mvc-4613,Y(NiO2)2,0.4743000000000004
mvc-4637,Mn2AlO4,0.8045
mvc-4685,Ca(CuO2)2,0.1341000000000001
mvc-4829,Zn(MoO2)2,0.4264000000000001
mvc-5357,TaAsO5,2.4501
mvc-5455,ZnAgAsO5,0.4977
mvc-5541,ZnCuAsO5,0.3032999999999999
mvc-5644,VAsO5,2.2473
mvc-5659,SnO2,1.7606000000000002
mvc-5722,Ca(BiO2)2,1.885
mvc-5726,ZnCrAsO5,1.9965
mvc-5732,Mg(SbO2)2,1.4629000000000003
mvc-5746,SbO2,1.0866999999999996
mvc-5754,Mg(BiO2)2,2.1528
mvc-5756,CaWO3,0.4039999999999999
mvc-5760,BiO2,0.41510000000000025
mvc-5769,VZnAsO5,1.9746
mvc-5781,Zn2IrWO6,1.1444
mvc-5801,MgWO3,1.1672000000000002
mvc-5827,ZnNiAsO5,0.5993999999999999
mvc-5840,Ca(SbO2)2,1.8759999999999997
mvc-5975,Mg(SnO2)2,1.4791
mp-642209,MgSiO3,2.0028999999999995
mp-643084,Gd2O3,2.8568
mp-6434,RbAlSiO4,4.3806
mp-643903,Ba2BiSbO6,0.4194
mp-644369,BaBiO3,0.1011000000000002
mp-645158,LaMnO3,0.9615999999999998
mp-645330,Cs4CO4,1.3116
mp-645545,Nb2FeO6,2.2509
mp-645709,SnSO4,4.174099999999998
mp-646320,Li2FeSiO4,3.1297999999999995
mp-647391,CeP5O14,3.6496
mp-6475,NaZr2(PO4)3,4.1967
mp-647579,ZnBr2,3.2203
mp-6478,LiTaGeO5,3.7398
mp-6479,KDy(PO3)4,5.2774
mp-647985,V(CO)6,0.466
mp-648211,PNCl2,3.5985
mp-651008,YbCo(BO2)5,0.3275000000000001
mp-651332,SeBr4,2.206
mp-651582,Mn(InTe2)2,0.12929999999999975
mp-651726,Ni3P4PbO14,3.9854
mp-651870,Pb3O5,0.8639000000000001
mp-652856,Tl2Zn(CN)4,4.852600000000002
mp-6815,Ti2Cu(PO5)2,0.5587
mp-683982,RuOF4,0.29800000000000004
mp-684059,LiTi(PO3)5,0.1854
mp-684066,Li2Ti(PO3)5,0.2219000000000002
mp-684495,Bi(PO3)4,0.06770000000000004
mp-684591,Al2O3,3.3432999999999997
mp-684678,H2O,0.05420000000000025
mp-707540,ZrP2(HO4)2,4.3746
mp-7084,SrCaSi,0.4237000000000002
mp-7198,SrPSe3,2.1333
mp-720262,Al2Si2H4O9,0.4899
mp-720299,ZrCuH8(O2F3)2,0.8694999999999999
mp-720741,TiH14(OF)6,1.5989
mp-720843,H10S(NO2)2,1.2048
mp-762488,NaMn(HO)3,1.6517
mp-762508,MgFeO3,0.1025999999999998
mp-762554,Li2FeSiO4,3.0229
mp-762672,Li2Mn2NiO6,0.3242000000000003
mp-762683,LiMnPO4F,0.9336999999999998
mp-762751,Li3Co2(SiO4)2,0.3151999999999999
mp-762812,Li3Co2(SiO4)2,0.3499999999999999
mp-762828,LiMnSiO4,0.19499999999999984
mp-762832,Li2Mn(SO4)2,4.5945
mp-762837,LiFeSiO4,2.911
mp-762958,Li6MnNi7O16,0.3199000000000001
mp-763025,LiCr(PO3)4,3.0954
mp-763027,FeOF,0.41949999999999976
mp-763085,LiMn2F7,0.13370000000000004
mp-763167,FeOF,0.3927999999999998
mp-763231,Cr4OF11,0.9434
mp-763325,LiCoPO4F,0.3943000000000001
mp-763374,LiVP2O7,2.1773
mp-763404,LiV4(PO4)3,2.6747000000000005
mp-763451,LiP4WO12,3.899000000000001
mp-763476,FeOF,0.35089999999999977