task_id,pretty_formula,band_gap
mvc-15905,AlMoO3,1.737499999999999
mvc-15954,Re2O7,0.0
mvc-2146,Zn2CoN2,0.0
mvc-3451,YWF5,1.5307999999999997
mvc-3464,YSnO3,0.0
mvc-3466,TiAlO3,0.0
mp-1008284,Cr3Ni,0.0
mp-10152,La(SiIr)2,0.0
mp-1017514,MgSiN2,4.1796999999999995
mp-1018699,EuZnGe,0.0
mp-1040938,Mg(CoO2)2,0.0
mp-1045833,Mn9O13,0.0
mp-1047752,Sb(WO4)2,0.0
mp-1067042,LiMg2Si,0.0
mp-1067260,CaW,0.0
mp-1079296,HfAu3,0.0
mp-1079468,ZnCu2SnTe4,0.0
mp-1079742,GeN2OF6,0.0
mp-1094327,SrMg,0.0
mp-1094586,Li2Mg,0.0
mp-1096698,ZnGeIr2,0.0
mp-1096930,Cu(AgO)2,0.0
mp-1099222,CsMg14CrO16,0.0
mp-1099821,K2Na2Mo(WO4)3,0.0
mp-1099923,La7SmMn8O24,0.0
mp-1120770,Tl2Cl3,0.0
mp-1173963,Li5Co3O8,0.0
mp-1183069,Ac,0.0
mp-1183728,Co2S3,0.0
mp-1184158,DyTmRh2,0.0
mp-1184629,Ho2MgGa,0.0
mp-1184651,Hg3Sb,0.0
mp-1184830,HoTmPd2,0.0
mp-1187203,Ta3Re,0.0
mp-1187902,Yb2Mg,0.0
mp-1198979,K6Na14MgTl18,0.02660000000000018
mp-1203422,Na2Cd11,0.0
mp-1206425,Co4N,0.0
mp-1212296,Ho3Fe2Si3,0.0
mp-1221074,NaCaSb2O7,0.0
mp-1221627,MnAlCuPd,0.0
mp-1226883,Ce2U2O9,0.0
mp-1228713,Al4Ni15,0.0
mp-1238810,ZrZn3N4,0.0
mp-12743,CrTe4Au,0.0
mp-15842,Nb2Co12P7,0.0
mp-16378,HoS2,0.0
mp-22432,Ti4Cu2O,0.0
mp-22866,HoBi,0.0
mp-24728,VH2,0.0
mp-25634,Li3V2(GeO5)2,0.0
mp-29199,BaCuN,0.006400000000000183
mp-3043,Sr(Mo3S4)2,0.0
mp-3054,Li2CO3,5.0573999999999995
mp-30569,Zr6Co23,0.0
mp-31324,Li2In,0.0
mp-3202,BaNi9P5,0.0
mp-3204,YbSnPd,0.0
mp-34713,Na(Pr2Se3)4,0.0
mp-3822,SrCO3,4.425400000000001
mp-3824,Ta9(NiS3)2,0.0
mp-3828,BaAl2O4,3.9419000000000004
mp-3835,Ba(Mo3S4)2,0.0
mp-3852,Tb3(CuGe)4,0.0
mp-3867,Pr2Co7B3,0.0
mp-4194,Zn(CrS2)2,0.0
mp-5306,Nb4CrS8,0.0
mp-531,K4Si23,0.0
mp-541852,Co21(ReB3)2,0.0
mp-555247,Dy3ReO7,0.0
mp-5557,ThB4Mo,0.0
mp-558990,K2Sr(PO3)4,5.602600000000001
mp-559691,Ca2Al2SiO7,4.284800000000001
mp-560665,LaPb6BrO7,1.9304999999999999
mp-5662,Ce2Fe17N3,0.0
mp-5669,Ca19Ag8N7,0.0
mp-5673,NiMoP8,0.0
mp-5684,Ce2CuGe6,0.0
mp-568509,Er(CoB)2,0.0
mp-568621,Mg8BRh4,0.0
mp-569819,Th7Os3,0.0
mp-570159,SmZnSn,0.0
mp-5709,Tl3PO4,2.6397999999999997
mp-574262,Ce4C2Br5,0.0
mp-5901,CeMnSi2,0.0
mp-5918,Hf2NiP,0.0
mp-608358,CuAgPO4,0.0
mp-611448,C,4.399799999999999
mp-649905,V2Te2O9,2.5242999999999998
mp-672208,Ce2Si2O7,0.0
mp-672336,Li5Ca7Sn11,0.0
mp-673645,Mo7S8,0.0
mp-673657,Ti7S12,0.0
mp-674367,Re6Pb5O19,0.0
mp-674509,W43N38,0.0
mp-674645,Na3Nd5Cl15,0.0
mp-685855,Nb3(Bi5Cl9)2,0.0
mp-685874,V(MoS2)2,0.0
mp-685878,Mg9(In13S24)2,0.16159999999999997
mp-685901,K4Pt2I9,0.0
mp-685942,Ti2(Mo3Se4)5,0.0
mp-686253,K2YbTi(PO4)3,0.0
mp-686487,Th2(Mo3S4)5,0.0
mp-691074,SrPrGaCuO5,0.24230000000000018
mp-691121,Sr3La5Mn8O24,0.0
mp-691136,Ti2Fe4O9,0.9363000000000001
mp-694557,LiMn(PO3)4,0.042300000000000004
mp-695895,K4Ba2N7O16,0.37959999999999994
mp-697076,Ti3Zn3C,0.0
mp-698613,La14Mn16O45,0.0
mp-698622,Sr10Mn5Zn9(AsO)10,0.03629999999999978
mp-698682,Sr16Fe16O41,0.0
mp-698703,Li15Mn21O43,0.0
mp-698762,Ta2Mn4O9,0.0
mp-699041,Ca5Nd5Mn9CrO30,0.0
mp-699557,CsKMo4(P3O13)2,2.337
mp-699686,Sr51W12N56O3,0.12019999999999964
mp-704988,Ni2(PO3)5,0.0
mp-705002,Li3V4P9O32,1.3475000000000001
mp-705008,V4P9O32,0.0
mp-708,LaAs,0.0
mp-741593,Ba4Y2Cu4W2O17,0.0
mp-743198,Mn2FeAg2(PO4)3,0.0
mp-743694,Ba2La4Mn5SnO18,0.0
mp-743770,La4Mn5Co(PbO9)2,0.0
mp-744084,MnAgH8(OF)4,0.0
mp-752575,BaSrI4,3.2504999999999997
mp-754116,BaY2Br8,4.092499999999999
mp-754302,Dy2Zr2O7,2.6097000000000006
mp-759054,Li2Cu2Si2O7,0.11929999999999996
mp-759068,LiSnP2O7,0.0
mp-759187,Li3Ti2(PO4)3,0.028500000000000192
mp-759265,Li2Cu5(PO4)4,0.0
mp-759393,CuH16C4(N5O)2,0.796
mp-759587,LiSb(PO3)4,4.1998999999999995
mp-759627,LiCuPO4,0.28980000000000006
mp-759776,LiCuPO4,0.0
mp-760825,LiCu3F10,0.0
mp-761805,LiCoPO4,3.0709999999999997
mp-763706,LiMn(PO3)3,3.9618999999999995
mp-764307,LiMn3OF5,1.7959000000000003
mp-764313,KLiMnP3HO10,3.6249000000000002
mp-764377,Na7Ni17O24,0.0
mp-764378,LiCo3Sb(PO4)6,0.0
mp-764438,Li4CrNi5(PO4)6,0.0
mp-764445,LiNbCo3(PO4)6,0.0
mp-764453,LiFe4(BO3)4,1.4447999999999999
mp-764466,Mn12O5F19,0.0
mp-764485,Li6MnV3(PO4)6,0.42969999999999997
mp-764498,Mn12O7F17,0.0
mp-764520,LiFe2(BO3)2,1.3886000000000003
mp-764537,Na9Mn15O32,0.24630000000000019
mp-764575,Mn12O7F17,0.0
mp-764990,Li4V3P8O29,0.9561999999999999
mp-765319,LiMnOF2,1.3963999999999999
mp-765325,Li2V2OF6,1.8983999999999999
mp-765377,Li2VFeP2(HO5)2,1.7307000000000001
mp-766643,K4Fe2O7,0.0
mp-766646,LiNiPO4,3.5025999999999997
mp-766729,La8Mn7O24,0.0
mp-766895,Cr8Ni50Mo17,0.0
mp-767049,LiVSiO4,2.1713999999999998
mp-767141,Sn(PO3)2,3.7518000000000002
mp-767268,LiV9O22,0.0
mp-767351,V5(P3O11)2,0.061900000000000066
mp-767437,Co3(P2O7)2,0.33899999999999997
mp-767561,Li3Mn4(PO4)6,0.0
mp-767732,BaMn4O8,0.35719999999999974
mp-768715,Li3BiB4O9,3.9285999999999994
mp-769807,Li3Cr(FeO2)4,0.0
mp-772562,Nd2V2O7,0.0
mp-772812,Lu2GeO5,3.5858999999999996
mp-773411,MnPO4,0.0
mp-773541,Fe10O11F9,0.0
mp-773739,Fe4O5F3,0.0
mp-773920,Cr5O12,1.7946999999999997
mp-773943,Li11U4(WO5)8,0.0
mp-774428,K3V14O28,0.0
mp-775126,Mn12O7F17,0.0
mp-775171,Li4Mn2CrNi3(PO4)6,0.0
mp-775186,Li8Sc5Fe3(SiO3)16,2.9242999999999997
mp-775240,Fe2Cu(PO4)3,0.0
mp-775266,LiCr(PO3)4,2.7592999999999996
mp-775341,Na4CrH8SO7,2.4185999999999996
mp-775350,LiVSiO4,2.6672000000000002
mp-775379,Na3Ni2P2(CO7)2,0.0
mp-775458,LiV18O44,0.0
mp-776769,Li2Fe2(PO4)3,0.0
mp-776789,Li5Mn6(BO3)6,0.23389999999999977
mp-777937,Li3Mn4(BO3)4,0.39849999999999985
mp-777944,Li3Mn4(BO3)4,0.28100000000000014
mp-777968,Li5Ni2(PO4)3,3.8190999999999997
mp-777983,Li32Ti13Cr3O48,1.3658000000000001
mp-778043,Li32Ti3Cr13O48,0.9914000000000001
mp-778231,Na8Co2O7,1.4123999999999999
mp-778249,Li4TiNi3Sn2(PO4)6,2.3186999999999998
mp-778343,Li32Ti3Cr13O48,1.0460000000000003
mp-778374,LiMn2(BO3)2,0.44840000000000013
mp-778375,La2Nb2N2O5,1.6052999999999997
mp-778406,Zn9Fe21O40,0.0
mp-778500,Li5TiMn9O20,0.0
mp-778542,Li32Ti3Cr13O48,0.9586999999999999
mp-778589,Ba4Ce2O7,0.0
mp-778612,Na3CuO2,1.5675000000000001
mp-778619,Na4Co2O5,0.9819000000000001
mp-781901,NiH18(IN)6,0.9112999999999999
mp-8294,Cs2Li2TiO4,3.9553999999999996
mp-8408,Er(BRh)4,0.0
mp-849523,Li2MnVP2(HO5)2,0.0
mp-849566,Li2Mn3(BO3)3,0.0
mp-849572,Li2Fe3OF6,2.5328999999999997
mp-849661,La2Nb2N2O5,1.678
mp-850021,NaFe11O17,0.32940000000000014
mp-850072,Li3Mn4(BO3)4,0.0
mp-850475,Li3Mn2(P2O7)2,0.0
mp-850476,Li5Mn4(P2O7)4,0.04239999999999999
mp-850477,CsCrH24(SO10)2,3.9667000000000003
mp-850770,Li9V6(P8O29)2,0.9971000000000001
mp-851041,Na2Fe(Si2O5)3,0.0
mp-851044,Ca9Mn(PO4)7,0.0
mp-851049,LiV4OF11,0.0
mp-851063,LiMnPO4,3.1409000000000002
mp-851263,Co2OF3,0.0
mp-851277,Li4Fe2(PO4)3,0.0
mp-851282,Cr(SO4)2,0.0
mp-851285,Li2Fe2(PO4)3,0.0018999999999999573
mp-853137,Li2Si6Ni2O15,3.8406999999999996
mp-861908,TaTiRu2,0.0
mp-863723,Ho2MgGe2,0.0
mp-864969,Mg2PdRh,0.0
mp-865079,TiZnPd2,0.0
mp-865141,Lu4Ni13C4,0.0
mp-865271,LuMgRh2,0.0
mp-865436,Gd2IrRh,0.0
mp-865561,Y2AgRu,0.0
mp-8808,Er2Si5Ru3,0.0
mp-9332,KGaPO4F,4.108099999999999
mp-961706,TiSiPt,0.9930000000000003
mp-961718,TiAsRh,0.0
mp-961721,HfBiRh,0.0
mp-961722,TiBiRh,0.0
mp-961727,TaGeRh,0.0
mp-961732,HfNiPb,0.0
mp-9697,Cs6GaSb3,0.44110000000000005
mp-975057,Rb3Dy,0.0
mp-979428,YEr4Al15,0.0
mp-983237,Ga3Bi,0.0
mvc-11573,VO2,1.0171000000000001
mvc-12110,MgMn2O4,0.0
mvc-12796,AlFe3(SiO4)3,2.0444999999999998
mvc-4519,SiNiO4,0.0
mp-3179,Tb3(CuSi)4,0.0
mp-3213,LaMnSi2,0.0
mp-5061,Li5ReO6,2.1582999999999997
mp-513,ErGe3,0.0
mp-5134,LaMg2Ni9,0.0048000000000003595
mp-5156,ThP2O7,5.3892999999999995
mp-5170,NdCoSi2,0.0
mp-5186,ScNiSn,0.0
mp-5560,Cd3(BO3)2,1.4544000000000001
mp-5575,GdTaO4,3.2685999999999997
mp-5601,HoCoSn,0.0
mp-5696,La2Cu2O5,0.0
mp-5735,BaTbO3,0.0
mp-5957,EuTaO4,0.0
mp-5966,Cd2SnO4,0.39979999999999993
mp-5972,CsPd2F5,0.25239999999999996
mp-6000,La2Ti3(AgO5)2,1.9412000000000003
mp-6018,Ba3NdRu2O9,0.0
mp-6031,Li16Nb2N8O,3.3829000000000002
mp-6071,Sr3LiIrO6,0.0
mp-6077,Ba3SmRu2O9,0.0
mp-608594,CrWO4,0.0
mp-609,CrSn2,0.0
mp-6144,Na2La2Ti3O10,2.0913999999999997
mp-637220,Gd(SiPt)2,0.0
mp-637431,Eu2Ru2O7,0.0
mp-637918,Cr3GeN,0.0
mp-637965,Gd(FeGe)2,0.0
mp-638,SrZn5,0.0
mp-638018,UGeS,0.0
mp-638079,Gd2In,0.0
mp-638374,BaNdFe2O5,0.0
mp-638841,Eu(AsRh)2,0.0
mp-639347,BaEuFe2O5,0.0
mp-639526,La2(ZnGe2)3,0.0
mp-639705,SiO2,5.4940999999999995
mp-639736,Rb,0.0
mp-639756,DyIn3Cu2,0.0
mp-639789,Fe2Re3,0.0
mp-639892,GdMn12,0.0
mp-640039,Pu2InRh2,0.0
mp-640044,Pu2SnPd2,0.0
mp-640047,Mn2GeSe4,0.0
mp-640073,FeCuS2,0.0
mp-640095,La3Co,0.0
mp-640147,Fe(NiO2)2,0.0
mp-640189,TiNi,0.0
mp-640227,KEu(WO4)2,0.0
mp-640442,Na17In12Ga29,0.0
mp-640458,Pu2InNi2,0.0
mp-640555,Sr2GdCoCu2O7,0.0
mp-640719,K4(CoO2)7,0.0
mp-640827,YbMn4(CuO4)3,0.0
mp-640847,TmMn4(CuO4)3,0.0
mp-640848,SmMn4(CuO4)3,0.0
mp-640862,Sb16Te3,0.0
mp-640922,CeInPt,0.0
mp-640956,Eu(Sb3Os)4,0.0
mp-641065,HoMn4(CuO4)3,0.0
mp-675553,Ag(Mo3S4)2,0.0
mp-675554,Nd(SmSb)3,0.0
mp-675585,Ti7Co3N10,0.0
mp-675633,Ag4AuS2,0.0
mp-675640,Hg2AsF6,0.0
mp-675643,Ce5AgS8,0.0
mp-675644,Co2RhS4,0.0
mp-675647,Hg(Mo3S4)2,0.0
mp-675691,Ni2RhS4,0.0
mp-675740,Ca(CeTe2)2,0.0
mp-675832,SrCeN2,0.9146000000000001
mp-675895,La3Fe2S7,0.0
mp-675925,Ce2PbS4,0.0
mp-676703,Li3MnAs2,0.0
mp-676764,InCuSe2,0.0
mp-676933,CeAl8O16,0.0
mp-676985,YbPaO4,0.0
mp-677074,PbO,0.0
mp-677105,Cu2GeSe3,0.0
mp-677151,YbTiCdSbO7,0.0
mp-677237,Y3U2O10,0.14669999999999916
mp-677244,Tb5(RuO6)2,0.0
mp-677308,NaPr2Cl6,0.0
mp-677311,Re3Pb3O10,0.0
mp-677349,Li11MnAs6,0.0
mp-706620,H6S2N2O3,0.05870000000000003
mp-762163,Li3TiMn2O6,0.0
mp-762197,RbAl(H2N)4,2.5643000000000002
mp-762214,Li2Co3SnO8,0.0
mp-762408,Li13Mn8O24,0.0
mp-762413,Li3CrSiO5,2.9625999999999997
mp-762456,Li4V2Fe3Ni3O16,0.0
mp-769001,Li6Sn2B4SO16,3.4699999999999998
mp-769019,Li(BiO2)2,0.0
mp-7691,YB4Mo,0.28219999999999956
mp-7704,Ca(AlSi)2,0.0
mp-770585,Li2TiCo3(PO4)6,0.0
mp-770622,Li24Mn11CrO36,1.2310999999999999
mp-770641,LiMn7O12,0.0
mp-770662,CdCoO3,0.0
mp-770784,Li3Fe(CoO2)4,0.0
mp-7708,TlCdS2,0.0
mp-771051,Fe2Ni3P6WO24,0.9691000000000001
mp-771188,Mn13Fe3O32,0.0
mp-771234,Li5Mn2Ni3O10,0.20840000000000014
mp-771450,Li5Ni3(SnO5)2,0.028999999999999915
mp-771460,TiCo5O12,0.0
mp-771461,MnV4CuO12,0.0
mp-7788,Er2Co12P7,0.0
mp-779116,Li2Ti3SnO8,1.2354000000000003
mp-780033,TbNbO4,3.4040999999999997
mp-853192,Na6Cr2B4SO16,0.0
mp-853201,Na6Mn2As(CO4)4,0.0
mp-8535,ErSi2Rh3,0.0
mp-8568,Ca4PtO6,2.3916999999999997
mp-8573,BaTbF6,0.0
mp-8597,ScB2C,0.0
mp-8601,Te4Mo3,0.0
mp-861868,KNaLaTaO5,3.7157000000000004
mp-8621,K2PtSe2,0.9345000000000001
mp-862792,Pr3AgGeS7,1.8793000000000002
mp-8631,LuAlB4,0.0
mp-8676,Tl(CuS)2,0.0
mp-868020,Nb6Cd(Br8O9)2,0.0
mp-868032,Pb13(N2O13)2,0.05270000000000019
mp-868046,Fe9Cu3O16,0.0
mp-868120,CrH18C5(NO)4,3.1936999999999998
mp-973954,LuFeGe2,0.0
mp-9741,Na3Cd2IrO6,0.0
mp-9746,Ba3NaIrO6,0.0
mp-974862,Rb3Na,0.0
mp-974887,LiNdSn2,0.0
mp-974959,Rb3Li,0.0
mp-974981,Rb3Mg,0.0
mp-975043,Rb3Ca,0.0
mp-975053,Rb3Ba,0.0
mp-975055,Rb3Ac,0.0
mp-975064,HoReB4,0.0
mp-975109,RbNa3,0.0
mp-975195,RbAc3,0.0
mp-975204,Rb,0.0
mp-975237,Rb(TeMo)3,0.0
mp-977126,Li3Ag,0.0
mp-977129,HgPd3,0.0
mp-977165,Li3Co,0.0
mp-977194,Na3Be,0.0
mp-977195,Li3Er,0.0
mp-977207,Li2Mg,0.0
mp-977216,NpAl3,0.0
mp-977225,LaNd3,0.0
mp-977229,Li3Cr,0.0
mp-977242,Hg3Sb,0.0
mp-977264,Pm2Mg,0.0
mp-977296,NpSb3,0.0
mp-977314,NaLu3,0.0
mp-977349,NpPa3,0.0
mp-977365,YbEuIn2,0.0
mp-977366,NpSb3,0.0
mp-977403,Na3Tl,0.0
mp-977446,NdVGe3,0.0
mp-985289,Nb3CrSe6,0.0
mp-985468,Er2Ga8Co,0.0
mp-985569,Sr2YCu3O7,0.0
mp-9888,Ir3Se8,0.0
mp-989644,Cs2NaCaCl6,0.0
mp-9898,BaCuAs,0.029300000000000104
mp-9899,BaAgP,0.12489999999999979
mp-990076,P2O5,0.0
mp-990436,ScClO,2.6308999999999996
mp-9913,Fe5B2P,0.0
mp-9916,NbCrSi,0.0
mp-9928,CaRhF6,0.0
mp-9930,UPSe,0.0
mp-9948,V5Te4,0.0
mp-9951,MnNbGe,0.0
mp-995191,BaTiO3,0.0
mp-9953,HfP,0.0
mp-9954,HfAs,0.0
mp-9956,AlCr2C,0.0
mp-9957,V2GeC,0.0
mp-9958,Ti2GeC,0.0
mp-9961,Ti2CdC,0.0
mp-9969,ScSi,0.0
mp-996967,TlCuO2,0.0
mp-996981,TlAuO2,0.0
mp-9970,ScGe,0.0
mp-997025,PbAuO2,0.0
mp-997051,PdAuO2,0.0
mp-9971,YGe,0.0
mp-997160,MnAgO2,0.0
mp-997504,Cu3OF5,0.0
mp-997524,Mn3Co2Sn(PO4)6,0.0
mp-997528,TiV3Fe2(PO4)6,0.0
mp-997541,Fe3Co2Te(PO4)6,0.0
mp-997552,Fe5O7F3,0.0
mp-997553,Fe4O7F,0.0
mp-9976,Ba(Sb3Ru)4,0.0
mp-9981,Mn2N,0.0
mp-998230,LiSnCl3,3.9835999999999996
mp-998234,CsTlF3,0.0
mp-998235,CsTlF3,0.0
mp-9983,Ta2Se3,0.0
mp-998418,MgAgF3,2.192
mp-998422,CuAgF3,0.0
mp-9985,NbNiB,0.0
mp-998537,ZnAgF3,1.4950999999999999
mp-998543,CaTcO3,0.0
mp-998568,KAgBr3,0.0
mp-998612,KGeBr3,2.9025999999999996
mp-998624,NaOsO3,0.0
mp-998627,NaMoO3,0.0
mp-9987,Nb2PC,0.0
mp-998746,TlGeBr3,2.2565999999999997
mp-998759,TlCdF3,3.7001999999999997
mp-998781,TlNiO3,0.0
mp-9988,Nb2CS,0.0
mp-998845,TlNiO3,0.0
mp-9989,Nb2AsC,0.0
mp-998913,KO3,0.842
mp-998916,KO2,0.0
mp-998929,K2O,1.8499999999999999
mvc-13534,MoO3,0.0
mvc-13558,FeS2,0.0
mvc-13559,Mg(MnS2)4,0.0
mvc-13560,Ca(VS2)4,0.0
mvc-13664,Mn(ZnN)2,0.0
mvc-13706,Cr3O8,0.0
mvc-13711,Ca2CuN2,0.18579999999999997
mvc-13718,Mg2Fe3O8,0.0
mvc-13775,Zn2FeN2,0.0
mvc-13792,Ca2WN2,0.0
mvc-13867,Sb2O5,0.0
mvc-13900,YCuO3,0.09140000000000015
mvc-13988,WO3,0.0
mvc-13999,CrO3,0.0
mvc-14025,Zn2Co3O8,0.0
mvc-14026,Zn2Cr3O8,0.0
mvc-14038,Ca2Fe3O8,0.0
mvc-14082,Al2(CuS2)3,0.0
mvc-14155,ZnFeO3,0.0
mvc-14156,MgCuF5,0.0
mvc-14216,Zn2Fe3O8,0.0
mvc-14233,MgCoF4,3.8341000000000003
mvc-14243,CaCoO3,0.0
mvc-14254,Ca3Fe2(RhO6)2,0.0
mvc-14257,Mo3O8,0.0
mvc-14396,PrMn2O6,0.0
mvc-14409,AlCrO3,1.7164000000000001
mvc-14448,Ca(CoS2)4,0.0
mvc-14449,Ca(NiS2)4,0.0
mvc-14519,ZnFe2O5,0.0
mvc-14557,Ca2MnN2,0.0
mvc-14558,Mg2TiN2,0.0
mvc-14765,Ca2V3O8,1.4929000000000001
mvc-14816,Al(CuS2)3,0.0
mvc-14980,CaMn2O5,0.0
mvc-15135,FeO2,0.0
mvc-4609,Mg(CuO2)2,0.0
mvc-4622,Al(NiO2)2,0.0
mvc-4630,Mg(AgO2)2,0.0
mvc-4633,Al(FeO2)2,0.0
mvc-4660,Zn(AgO2)2,0.0
mvc-4675,Zn(CuO2)2,0.0
mvc-4692,Ca(AgO2)2,0.0
mvc-5327,Ca2YAgO5,0.0
mvc-5445,Ca2YBiO5,2.4941999999999998
mvc-5500,TiZnAsO5,0.0
mvc-5557,MgCoAsO5,1.0289000000000001
mvc-5565,MgCrAsO5,1.657
mvc-5583,Mg2TiIrO6,0.0
mvc-5584,Mg(AgO2)2,0.0
mvc-5587,CaMnAsO5,1.3136999999999999
mvc-5601,Zn(AgO2)2,0.0
mvc-5618,Ca2TiIrO6,0.0
mvc-5623,Zn2SnIrO6,0.0
mvc-5634,Ca2CuIrO6,0.0
mvc-5646,TiZn2IrO6,0.0
mvc-5647,Mg2SnIrO6,0.0
mvc-5666,Ca2SnIrO6,0.0
mvc-5710,Zn2CuIrO6,0.0
mvc-5715,Mg2CuIrO6,0.0
mvc-5722,Ca(BiO2)2,1.8849999999999998
mvc-5726,ZnCrAsO5,1.9964999999999997
mvc-5731,ZnWO3,0.0
mvc-5733,Zn(SnO2)2,0.0
mvc-5742,Ca(AgO2)2,0.0
mvc-5777,Mg2CrIrO6,0.0
mvc-5782,Mg2MnIrO6,0.0
mvc-5784,Ca2FeIrO6,0.0
mvc-5785,Ca2CrIrO6,0.0
mvc-5786,Mg2IrWO6,1.3014999999999999
mvc-5791,Mg2CoIrO6,0.0
mvc-5792,Zn2CoIrO6,0.0
mvc-5800,Mg2NiIrO6,0.0
mvc-5824,Zn2FeIrO6,0.0
mvc-5840,Ca(SbO2)2,1.8759999999999994
mvc-5864,MgMoAsO5,1.1480000000000001
mvc-5966,Ca2SnWO6,1.9675000000000002
mvc-5975,Mg(SnO2)2,1.4790999999999999
mp-641116,GdMn4(CuO4)3,0.0
mp-641487,EuMn4(CuO4)3,0.0
mp-641911,Ce(In2Pd)2,0.0
mp-642019,NdInPd,0.0
mp-642047,Ba6Ga2Co11O26,0.0
mp-642190,Ni3(BiS)2,0.0
mp-642304,Ba(Ge3Pt)4,0.0
mp-642477,U4Ga12Fe,0.0
mp-642659,V2H,0.0
mp-642731,CeH3(CO2)3,0.0
mp-642811,KCu2H2(SeO5)2,0.0
mp-643523,Pr6Fe13Ge,0.0
mp-643629,Sr2YCu3(PbO4)2,0.0
mp-644369,BaBiO3,0.10110000000000019
mp-644693,Si,0.0
mp-645068,Ce2In3Ru2,0.0
mp-645208,Sr2Co2O5,0.0
mp-645330,Cs4CO4,1.3115999999999999
mp-645339,Fe5C2,0.0
mp-645545,Nb2FeO6,2.2508999999999997
mp-645591,Eu2(Ga3Rh)3,0.0
mp-645709,SnSO4,4.174099999999999
mp-6467,Na2CuP2O7,0.49130000000000007
mp-647004,TiBrO,0.0
mp-647391,CeP5O14,3.6495999999999995
mp-647768,Co3C10O9,1.6886999999999999
mp-647814,U2O5,0.0
mp-647985,V(CO)6,0.46599999999999997
mp-648006,Tb4In20Ni11,0.0
mp-649813,Mn7(PbO5)3,0.0
mp-649833,Tb15(Ni4P3)7,0.0
mp-649944,Na2Cu3(SiO3)4,0.47529999999999983
mp-650277,Pr6Si4Ni7,0.0
mp-650285,Mn14Si23,0.0
mp-650968,Nd5(FeB)18,0.0
mp-651024,KAlGeO4,3.9379999999999997
mp-651178,CsMoP2O7,3.7946999999999997
mp-651726,Ni3P4PbO14,3.9854000000000003
mp-651772,UTe5,0.0
mp-651900,CeSiP3,0.0
mp-652856,Tl2Zn(CN)4,4.852600000000001
mp-653562,Ag3I(NO3)2,0.0
mp-677445,Y4SiS3,0.0
mp-677715,B3H60C16(NO)12,0.0
mp-6785,K3UO2F5,2.7138999999999998
mp-6794,LaB2Rh2C,0.0
mp-680433,Ba6Ca6Tl5Cu9O29,0.0
mp-680469,La10Ga5Cl4,0.0
mp-680564,Ce2Mg17,0.0
mp-680586,Ce5Mg41,0.0
mp-680604,YbCd6,0.0
mp-680692,Ce4(SiS4)3,0.0
mp-680721,GaSe2,0.0
mp-683906,Yb5Cu11Sn8,0.0
mp-683907,Yb2Te4O11,0.0
mp-683944,Pr2Fe14B,0.0
mp-683971,Sm15(Ga11Ni13)4,0.0
mp-683987,Ce15B8N25,0.0
mp-684013,Ba2In13Ir4,0.0
mp-684065,Ti5(B6O13)2,0.0
mp-684591,Al2O3,3.3432999999999993
mp-684605,Cu17Se10,0.0
mp-684606,Cu27Se20,0.0
mp-684623,Zr10C9,0.0
mp-684639,UO3,0.0
mp-684676,Al2S3,0.0
mp-684692,IN3,0.0
mp-684711,Zr3S4,0.0
mp-684725,KMgH5(SO5)2,0.0026999999999999247
mp-684799,K5As4,0.0
mp-684853,Ba2Yb2Al4Si3(N5O2)2,0.28770000000000007
mp-7073,BaTiS3,0.0
mp-709352,Na2Sc2P4H12C4O13,0.0
mp-7123,KSb(PSe3)2,1.7976999999999999
mp-7198,SrPSe3,2.1332999999999998
mp-720380,CuP2(HO3)2,0.0
mp-762510,Li4Ni5Sb3O16,0.0
mp-762512,Mn3CrCo2(PO4)6,0.0
mp-762518,Li4Ti2Mn3Nb3O16,0.0
mp-762559,Li2Ti(NiO3)2,0.47989999999999977
mp-762567,LiMn3(PO4)4,0.0
mp-762610,Li2MnNi3O8,0.0
mp-762634,K2LiMn2O4,0.0
mp-762672,Li2Mn2NiO6,0.32420000000000027
mp-762700,Li2Ti2Fe3O10,0.23299999999999987
mp-762760,Li2V(FeO3)2,1.4748999999999999
mp-762763,Li4Ti2Fe3Co3O16,0.0
mp-762812,Li3Co2(SiO4)2,0.34999999999999987
mp-762826,Li3Fe2(PO4)3,2.3800999999999997
mp-762842,Li6FeNi9O20,0.0
mp-762854,Li4Mn2Ni3O10,0.0
mp-762865,Li2V(SO4)2,3.5671999999999997
mp-762876,Li3Cr(Si2O5)3,3.7775000000000003
mp-762882,Li8FeNi9O20,0.0
mp-762917,Li2Fe(NiO3)2,0.0
mp-762970,Ba3V2P6(HO4)6,1.8232999999999997
mp-762983,FeOF,0.0
mp-762987,Sr20V15O49,0.0
mp-763023,Fe4O5F3,0.0
mp-763025,LiCr(PO3)4,3.0953999999999997
mp-763042,Mn6O5F7,0.0
mp-763064,Fe4O7F,0.0
mp-763072,Fe4O5F3,0.0
mp-763074,FeOF,0.0
mp-763113,FeOF,0.0
mp-763143,Mn6O7F5,0.0
mp-763164,FeOF,0.0
mp-763173,Mn6O7F5,0.0
mp-763223,Li4Mn3Fe2Ni3O16,0.0
mp-763224,Mn8O13F3,0.0
mp-763226,Li2Ni3(BO3)3,0.0
mp-763321,Yb2(WO4)3,0.0
mp-763407,LiP4WO12,3.9065000000000003
mp-763451,LiP4WO12,3.8990000000000005
mp-763487,Cr3P4O15,0.0
mp-763505,FeOF,0.0
mp-763675,Li4Fe7O12,1.2685999999999997
mp-763764,LiMnPH2O5,3.5172999999999996
mp-763775,FeOF,0.0
mp-763777,Li4Mn5O10,0.43679999999999986
mp-763779,Li2Mn3O6,0.0
mp-763799,Li2Mn2FeO6,0.0
mp-763802,Li5Mn3F14,1.3600999999999999
mp-763807,Li11Ni13O24,0.0
mp-764735,Li5Mn2Cu5O12,0.0
mp-771474,V4FeCoO12,0.0
mp-771476,Na3MnAsCO7,2.3827999999999996
mp-771478,Mn3Fe2P6WO24,0.0
mp-771482,Na2FeCSO7,3.4152999999999993
mp-771491,Na3VSiBO7,1.5682000000000003
mp-771497,Co2HgO4,0.0
mp-771506,Li5Co2Cu5O12,0.0
mp-771508,Li6Fe3Sb3O16,0.05879999999999974
mp-771509,Li5Mn5Cr2O12,0.0
mp-771510,Li7Fe3(WO8)2,0.0
mp-771514,Li4TiCo5O12,0.0
mp-771517,Li4Mn3Cr5O16,0.24029999999999996
mp-771522,Li5Fe2Cu3O10,0.0
mp-771525,Li3MnPCO7,3.8050999999999995
mp-771526,Li3FeSiBO7,0.0
mp-771527,Mn3FeNi2(PO4)6,0.0
mp-771531,Li5Fe7O12,1.221
mp-771537,Li7Cr3(WO8)2,1.4382000000000001
mp-771538,Li5Fe2Cu5O12,0.0
mp-771548,Li5Mn2Ni5O12,0.0
mp-771557,Li5V2Co5O12,0.47619999999999996
mp-771559,Li4Ti3Nb2Ni3O16,1.8728000000000002
mp-771570,Sr2CaI6,3.4311999999999996
mp-771576,LiMn2(PO4)2,0.0
mp-771577,Li4FeNi5O12,0.0
mp-771581,Na3FeSiBO7,0.0
mp-771582,Fe(SO4)2,0.0
mp-771603,Mn5Te3O16,0.0
mp-780293,Dy2Ge2O7,3.4549999999999996
mp-780448,Ho2Sb2O7,1.8317999999999994
mp-780551,Fe3O5F,0.0
mp-780552,NaMnO4,0.0
mp-780555,Fe3O5F,0.0
mp-780559,Fe3O5F,0.0
mp-780569,Ba8Nb7O24,0.0
mp-780585,Ti(FeO2)2,1.5819999999999999
mp-780589,Fe3O5F,0.0
mp-780590,Fe4O7F,0.0
mp-780591,Fe4O7F,0.0
mp-780592,Fe3O5F,0.0
mp-780618,Na2BiO3,0.0
mp-780631,Li3Mn2Fe(BO3)3,2.6426999999999996
mp-780632,Li10Fe2Co3Ni3O16,0.0
mp-780636,Mn3O5F,0.0
mp-780640,Fe3O5F,0.0
mp-780642,Li2Co2OF6,1.017
mp-780644,Fe2O3F,0.0
mp-780648,Fe2O3F,0.0
mp-780721,Na4Bi2O5,2.6917999999999997
mp-780724,LiSbP2O7,3.6412000000000004
mp-780738,H4WNCl6,0.0
mp-780756,Fe2O3F,0.0
mp-780793,Fe10O11F9,0.0
mp-780797,Fe10O11F9,0.0
mp-780799,Li8Mn5Fe3(BO3)8,0.0
mp-780800,Fe10O11F9,0.06980000000000008
mp-780805,Fe5(OF4)2,1.1663999999999999
mp-868646,Li4V5Sn3O16,1.3684000000000003
mp-868706,MnS2(NO7)2,0.21440000000000003
mp-977584,Zr2ZnAg2F14,0.31889999999999996
mp-977592,Bi2Rh3S2,0.0
mp-978008,Tb3Nd,0.0
mp-978084,PrVGe3,0.0
mp-978088,PrLu3,0.0
mp-978090,PrGeRu,0.0