task_id,composition,band_gap
mp-1228793,AsPd4,0.0
mp-2512,AsPd5,0.0
mp-1228756,AsPd6Pb,0.0
mp-10848,AsPdS,0.0
mp-10849,AsPdSe,0.0
mp-1183320,AsPt3,0.0
mp-1228738,AsPtS,0.0
mp-22079,AsRh,0.0
mp-2302,AsRh2,0.0
mp-760507,AsRhO4,0.0
mp-15650,AsRu,0.0
mp-1204679,AsS(NO4)2,0.0
mp-1183348,Au3Br,0.0
mp-1214844,Au3Br8N3,0.0
mp-1183201,Au3Cl,0.0
mp-971657,Au3N,0.0
mp-1182497,Au3N3(Cl6O)2,0.0
mp-984358,Au3O,0.0
mp-1214775,AuBr2,0.0
mp-1182317,AuBr3N2,0.0
mp-1183164,AuC,0.0
mp-1198967,AuCN3Cl4,0.0
mp-1214760,AuI2,0.0
mp-1214882,AuI3N,0.0
mp-1197816,AuI5N,0.0
mp-1008610,AuN,0.0
mp-1018648,AuN2,0.0
mp-1228842,AuN7O9,0.0
mp-1189694,AuNCl3,0.0
mp-1214771,AuNCl4,0.0
mp-984598,AuS,0.0
mp-1214753,AuS2,0.0
mp-1199204,B11(Pb2O9)3,0.0
mp-1228811,B11Rh18,0.0
mp-555170,B12S,0.0
mp-1001602,B12W,0.0
mp-534,B13N2,0.0
mp-13862,B13P2,0.0
mp-1228750,B20Ir4W5,0.0
mp-1228730,B24Mo7,0.0
mp-10681,B2Au,0.0
mp-1079333,B2CN,0.0
mp-631586,B2IrCl,0.0
mp-2331,B2Mo,0.0
mp-20391,B2Mo2Ir,0.0
mp-1188450,B2Mo2Os,0.0
mp-1079053,B2Mo3,0.0
mp-1228661,B2MoRu,0.0
mp-614006,B2O,0.0
mp-2850,B2Os,0.0
mp-1188234,B2OsW2,0.0
mp-2617,B2Pd5,0.0
mp-1077,B2Ru,0.0
mp-1228657,B2RuW,0.0
mp-569803,B2W,0.0
mp-1196163,B3H10N,6.020099999999999
mp-1200137,B3H4NO5,5.5185999999999975
mp-677715,B3H60C16(NO)12,0.0
mp-1080111,B3Mo,0.0
mp-1079348,B3Os2,0.0
mp-1196893,B3Pd16,0.0
mp-1106065,B3Rh7,0.0
mp-13854,B3Ru2,0.0
mp-17535,B3Ru7,0.0
mp-1228687,B4Mo,0.0
mp-1228634,B4MoIr,0.0
mp-1228655,B4MoRu2,0.0
mp-1188147,B4Os,0.0
mp-1228631,B4OsW,0.0
mp-27426,B4PF9,5.7120000000000015
mp-1201222,B4Pb6O13,0.0
mp-567926,B4Rh5,0.0
mp-721905,B5H4NO10,0.0
mp-721584,B5H8NO12,0.0
mp-1228672,B5Ir3W2,0.0
mp-8079,B5W2,0.0
mp-505535,B8Ru11,0.0
mp-633538,B9C,0.0
mp-27202,B9H8S,4.1560000000000015
mp-1079812,B9N,0.0
mp-1183149,BAu,0.0
mp-1183146,BAu3,0.0
mp-1183212,BAuO3,0.0
mp-984728,BC,0.0
mp-1239206,BC3,0.0
mp-1077125,BC5,0.0
mp-1078935,BC7,0.0
mp-1238837,BH,0.0
mp-696379,BH3OF4,7.6572999999999976
mp-567989,BH8CN,6.158
mp-1198592,BHO2,6.2883999999999975
mp-1183252,BIr,0.0
mp-1183221,BIrO3,0.0
mp-28897,BIrPd,0.0
mp-2501,BMo2,0.0
mp-4472,BMo2C,0.0
mp-1238849,BMoC,0.0
mp-1228637,BMoW,0.0
mp-1228641,BMoWC,0.0
mp-1192099,BO3,0.0
mp-997617,BOs,0.0
mp-1183263,BOs3,0.0
mp-984553,BOsO3,0.0
mp-863030,BP4(SBr)3,2.6310000000000002
mp-1202148,BP4H36Rh(C9F5)4,2.5140000000000002
mp-21266,BPPbO5,4.259
mp-984554,BPbO3,0.0
mp-7424,BPd2,0.0
mp-631580,BPd2Br,0.0
mp-20517,BPd3,0.0
mp-1228665,BPd5,0.0
mp-1214755,BPd6,0.0
mp-1183242,BPdO3,0.0
mp-1096829,BPt,0.0
mp-1077788,BPt2,0.0
mp-861943,BPt3,0.0
mp-1183277,BPtO3,0.0
mp-567164,BRh,0.0
mp-1183231,BRu3,0.0
mp-755829,BSbO3,3.6549000000000014
mp-1183194,BTeO3,0.0
mp-7832,BW,0.0
mp-1113,BW2,0.0
mp-13910,Ba(AgGe)2,0.0
mp-7882,Ba(AgSn)2,0.0
mp-1207061,Ba(AlGa)2,0.0
mp-570482,Ba(AlGe)2,0.0
mp-5506,Ba(AlSi)2,0.0
mp-1196154,Ba(As2O7)2,0.0
mp-14501,Ba(As3Pt2)2,0.19179999999999967
mp-1214761,Ba(As3Ru)4,0.0
mp-571350,Ba(AsPd)2,0.0
mp-568113,Ba(AsRh)2,0.0
mp-4109,Ba(AsRu)2,0.0
mp-1228679,Ba(B2Pt3)2,0.0
mp-12073,Ba(BIr)2,0.0
mp-7349,Ba(BRh)2,0.0
mp-1047467,Ba(BiO2)4,0.0
mp-571599,Ba(BiPd)2,0.0
mp-1079338,Ba(BrO)2,0.0
mp-1104609,Ba(Cd2Pt)2,0.0
mp-1069712,Ba(CdGe)2,0.0
mp-8150,Ba(CdSb)2,0.0
mp-38417,Ba(CeS2)2,0.0
mp-21918,Ba(Co5As3)2,0.0018000000000002454
mp-20563,Ba(CoAs)2,0.0
mp-1070253,Ba(CoGe)2,0.0
mp-1029457,Ba(CoN)2,0.0
mp-1041292,Ba(CoO2)4,0.0
mp-1195776,Ba(CoSn4)2,0.0
mp-571339,Ba(CrAs)2,0.0
mp-1029568,Ba(CrN2)2,0.0
mp-16052,Ba(Cu2As)2,0.0
mp-14786,Ba(Cu2As)4,0.0
mp-14785,Ba(Cu2P)4,0.0
mp-505215,Ba(Cu3As)2,0.0
mp-618788,Ba(Cu5P2)2,0.0
mp-9247,Ba(CuAs)2,0.0
mp-1147739,Ba(CuO)4,0.0
mp-568474,Ba(CuP2)2,0.0
mp-1080702,Ba(CuSb)2,0.0
mp-568961,Ba(FeAs)2,0.0
mvc-10874,Ba(FeO2)4,0.0
mp-4883,Ba(FeP)2,0.0
mp-27660,Ba(FeS2)2,0.0
mp-1189647,Ba(FeSb3)4,0.0
mp-1077893,Ba(FeSe2)2,0.0
mp-1206799,Ba(GaH)2,0.0
mp-1199346,Ba(GaO3)2,0.0
mp-504985,Ba(GaPt)2,0.0
mp-642304,Ba(Ge3Pt)4,0.0
mp-1228646,Ba(GeAu)2,0.0
mp-10698,Ba(GeRh)2,0.0
mp-30050,Ba(GeRu)2,0.0
mp-686673,Ba(Hf2As3)6,0.0
mp-574176,Ba(InAu)2,0.0
mp-1214759,Ba(InCu)2,0.0
mp-1214750,Ba(InPt)2,0.0
mp-674187,Ba(IrO3)2,0.0
mp-7876,Ba(MgGe)2,0.0
mp-1214765,Ba(MgIn)2,0.0
mp-20452,Ba(MgPb)2,0.0
mp-7875,Ba(MgSi)2,0.0
mp-29622,Ba(MgSn)2,0.0
mp-15608,Ba(MnAs)2,0.0
mp-1068010,Ba(MnBi)2,0.0
mp-22412,Ba(MnGe)2,0.0
mp-567240,Ba(MnSb)2,0.0
mp-22679,Ba(MnSn)2,0.0
mp-5716,Ba(Mo3S4)2,0.0
mp-1029505,Ba(MoN2)2,0.0
mp-1047842,Ba(MoO2)4,0.0
mp-1104001,Ba(MoSe)3,0.0
mp-17236,Ba(Ni2B)6,0.0
mp-14765,Ba(Ni5P3)2,0.0
mp-568280,Ba(NiAs)2,0.0
mp-9473,Ba(NiP)2,0.0
mp-28927,Ba(NiP2)2,0.0
mp-28895,Ba(P2Pd)2,0.0
mp-11169,Ba(PIr)2,0.0
mp-1191385,Ba(PO4)2,0.0
mp-12056,Ba(POs)2,0.0
mp-8236,Ba(PPd)2,0.0
mp-8583,Ba(PRh)2,0.0
mp-4484,Ba(PRu)2,0.0
mp-759541,Ba(PdO2)2,0.0
mp-30432,Ba(RhPb2)3,0.0
mp-561944,Ba(RuO2)6,0.0
mp-1198200,Ba(SO4)5,0.01950000000000008
mp-1106056,Ba(Sb3Os)4,0.0
mp-9976,Ba(Sb3Ru)4,0.0
mp-570298,Ba(SbAu)2,0.0
mp-1047430,Ba(SbO2)4,0.0
mp-1079967,Ba(SbPd)2,0.0
mp-1069937,Ba(SbRu)2,0.0
mp-1182383,Ba(SeO3)2,0.0
mp-14561,Ba(SiIr)2,0.0
mp-27388,Ba(SiNi)2,0.0
mp-18655,Ba(SiRh)2,0.0
mp-1190471,Ba(Sn2Ru)3,0.0
mp-1047280,Ba(SnO2)4,0.0
mp-1120806,Ba(SnSe)32,0.0
mp-3392,Ba(TlHg)2,0.0
mp-1228781,Ba(V3S4)4,0.0
mp-1228772,Ba(V5S8)2,0.0
mp-1041454,Ba(WO2)4,0.0
mp-868170,Ba(WO3)6,0.0
mp-1206924,Ba(ZnGe)2,0.0
mp-7426,Ba(ZnP)2,0.0
mp-14207,Ba(ZnSb)2,0.0
mp-1070267,Ba(ZnSi)2,0.0
mp-13920,Ba(ZnSn)2,0.0
mp-27568,Ba10Al3Ge7,0.0
mp-1229139,Ba10Ca5Cu10Hg5O31,0.0
mp-1228878,Ba10CaY4(Cu3O7)5,0.0
mp-1229198,Ba10Co7(IrO10)3,0.0
mp-1229200,Ba10Cu5Hg5O21,0.0
mp-766417,Ba10Cu5O17,0.0
mp-1229210,Ba10Er5Cu15O34,0.0
mp-1228981,Ba10Fe8Pt2Cl2O25,0.0
mp-30430,Ba10Ga,0.0
mp-1229059,Ba10Gd2Y3(Cu3O7)5,0.0
mp-1229307,Ba10Gd3Y2(Cu3O7)5,0.0
mp-1229238,Ba10Gd4Y(Cu3O7)5,0.0
mp-1229303,Ba10GdY4(Cu3O7)5,0.0
mp-1228879,Ba10Ge7O3,0.0
mp-1229045,Ba10Ho5(Cu5O11)3,0.0
mp-774832,Ba10Li2Bi4O21,0.0
mp-686330,Ba10Mg3ZrTa6O30,0.0
mp-1229245,Ba10Pr2Y3(Cu3O7)5,0.0
mp-1229131,Ba10Pr4Y(CuO2)20,0.0
mp-1228864,Ba10Pr5Ir(Ru2O15)2,0.0
mp-691043,Ba10Pr5Nb(Sn2O15)2,0.0
mp-1228989,Ba10PrY4(Cu3O7)5,0.0
mp-1229203,Ba10PrY4(CuO2)20,0.0
mp-1203847,Ba10Re3O22,0.0
mp-1228940,Ba10Re6CO30,0.0
mp-1228911,Ba10Ru3W(Cl2O9)2,0.0
mp-1229228,Ba10Si69,0.0
mp-1229115,Ba10Sm5(Cu5O11)3,0.0
mp-1228979,Ba10Ti8NbNiO30,0.0
mp-1229106,Ba10Y5(Cu5O11)3,0.0
mp-1229067,Ba10Y5Cu15O32,0.0
mp-1228903,Ba10Y5Cu15O34,0.0
mp-1229016,Ba10Zn4Cu(WO6)5,0.0
mp-1228932,Ba11(Bi3O10)3,0.0
mp-655147,Ba11(Cd4Bi7)2,0.0
mp-559484,Ba11(OsO6)4,0.0
mp-542293,Ba11Bi10,0.0
mp-605809,Ba11In6O3,0.0
mp-542428,Ba11Sb10,0.0
mp-1195315,Ba12(CoO3)11,0.0
mp-560641,Ba12Cl5F19,5.9804999999999975
mp-1228797,Ba12MnRu5(ClO6)4,0.0
mp-567643,Ba12Na15Li8N6,0.0
mp-1228785,Ba12V4O19,0.0
mp-758120,Ba13Bi11O36,0.0
mp-757571,Ba13Nb14O42,0.0
mp-695535,Ba13Ru10BrO36,0.0
mp-738639,Ba14Ir8(PdO11)3,0.0
mp-774711,Ba14LiY7(Cu10O21)2,0.0
mp-567518,Ba14MnBi11,0.0
mp-645700,Ba14Na11Li5N6,0.0
mp-6645,Ba14Na14CaN6,0.0
mp-645662,Ba14Na14LiN6,0.0
mp-570644,Ba14Na21CaN6,0.0
mp-570449,Ba14Na7CaN6,0.0
mp-777942,Ba14Na8CaN6,0.0
mp-774710,Ba14Y7(Cu10O21)2,0.0
mp-677468,Ba16Tb8Nb5(SnO16)3,0.0
mp-1229324,Ba16Zn9Ge80Pd3,0.0
mp-1229199,Ba17SrSm12Cl68,0.0
mp-759291,Ba17U11O42,0.0
mp-680165,Ba17Yb16Zn8Pt4O57,0.0
mp-695389,Ba18Pr9Sn4Sb5O54,0.0
mp-569841,Ba19Li44,0.0
mp-1228156,Ba2(AlAg)5,0.0
mp-1228507,Ba2(CaAl3)3,0.0
mp-1228706,Ba2(CrS2)5,0.0
mp-615789,Ba2(CuO2)3,0.0
mp-510508,Ba2(IrO3)3,0.0
mp-532273,Ba2(Mo2S3)3,0.0
mp-29219,Ba2(Ni3B2)3,0.0
mp-29087,Ba2(SnSb2)3,0.0
mp-685008,Ba20As13,0.0
mp-1229333,Ba20Ga5Ru7O44,0.0
mp-685931,Ba20Nb19Se60,0.0
mp-567701,Ba21Al40,0.0
mp-559274,Ba21Ge2O5,0.0
mp-563032,Ba21Si2O5,0.0
mp-530905,Ba23U8O48,0.0
mp-677705,Ba24In19N11,0.0
mp-685509,Ba25(Bi5O18)3,0.0
mp-1228614,Ba2Ag8S7,0.9590000000000001
mp-1093824,Ba2AgPd,0.0
mp-1042222,Ba2AlAg3O8,0.0
mp-1042329,Ba2AlBi3O8,0.0
mp-1048180,Ba2AlCo3O8,0.0
mp-1048330,Ba2AlCr3O7,0.0
mp-1048171,Ba2AlCr3O8,0.0
mp-1048073,Ba2AlCu3O7,0.0
mp-1042435,Ba2AlCu3O8,0.0
mp-1048153,Ba2AlFe3O8,0.0
mp-1228405,Ba2AlGa3,0.0
mp-1228416,Ba2AlIn3,0.0
mp-1048236,Ba2AlMo3O8,0.0
mp-1048483,Ba2AlNi3O7,0.0
mp-1048224,Ba2AlNi3O8,0.0
mp-1042580,Ba2AlSb3O8,0.0
mp-1044546,Ba2AlSn2F11,4.128699999999999
mp-1048096,Ba2AlSn3O7,0.0
mp-1042344,Ba2AlSn3O8,0.0
mp-1048438,Ba2AlTlCr2O7,0.0
mp-1046001,Ba2AlTlCu2O7,0.0
mp-1046349,Ba2AlTlFe2O7,0.0
mp-1046027,Ba2AlTlSn2O7,0.0
mp-1046436,Ba2AlTlV2O7,0.0
mp-1046389,Ba2AlTlW2O7,0.0
mp-1048346,Ba2AlV3O7,0.0
mp-1048162,Ba2AlV3O8,0.0
mp-1045008,Ba2AlW3O7,0.0
mp-1048143,Ba2AlW3O8,0.0
mp-2768,Ba2As,0.0
mp-1214745,Ba2B(PO4)2,0.0
mp-1198603,Ba2B5O11,0.0
mp-631574,Ba2BeGa,0.0
mp-567872,Ba2Bi,0.0
mp-569529,Ba2Bi3,0.0
mp-1048204,Ba2Bi3O7,0.0
mp-1078727,Ba2BiIrO6,0.0
mp-561147,Ba2BiRuO6,0.0
mp-1206930,Ba2Br2F,0.0
mp-1203389,Ba2Ca(PO4)4,0.0
mp-22601,Ba2Ca2Cu3HgO8,0.0
mp-1214800,Ba2Ca2EuTi3(CuO7)2,0.0
mp-1046494,Ba2Ca2Mn3Tl2O10,0.0
mp-1214747,Ba2Ca2NdTi2(CuO6)2,0.0
mp-1214744,Ba2Ca2TbTi3(CuO7)2,0.0
mp-1046109,Ba2Ca2Ti3Tl2O10,0.0
mp-1046474,Ba2Ca2Tl2Co3O10,0.0
mp-1046503,Ba2Ca2Tl2Cr3O10,0.0
mp-653154,Ba2Ca2Tl2Cu3O10,0.0
mp-1046475,Ba2Ca2Tl2Fe3O10,0.0
mp-1046512,Ba2Ca2Tl2Ni3O10,0.0
mp-1046558,Ba2Ca2Tl2W3O10,0.0
mp-1228579,Ba2Ca3Cu4HgO10,0.0
mp-1048549,Ba2Ca3Mn4Tl2O12,0.0
mp-1047819,Ba2Ca3Ti4Tl2O12,0.0
mvc-122,Ba2Ca3Tl2(CoO3)4,0.0
mp-556574,Ba2Ca3Tl2(CuO3)4,0.0
mvc-145,Ba2Ca3Tl2(FeO3)4,0.0
mp-1048352,Ba2Ca3Tl2(NiO3)4,0.0
mp-1048012,Ba2Ca3Tl2(SnO3)4,0.0
mvc-248,Ba2Ca3Tl2(WO3)4,0.0
mvc-149,Ba2Ca3Tl2Cr4O12,0.0
mp-1048633,Ba2Ca3Tl2V4O12,0.0
mp-1228589,Ba2Ca3TlCu4O11,0.0
mp-1214698,Ba2CaBiO6,0.0
mp-1229095,Ba2CaCeGd2Ti2(CuO7)2,0.0
mp-6879,Ba2CaCu2HgO6,0.0
mp-1232340,Ba2CaCu2MoO8,0.0
mp-1045459,Ba2CaCu3F14,0.0
mp-1045649,Ba2CaCuAg2F14,0.0
mp-1046122,Ba2CaCuNi2F14,0.0
mvc-2039,Ba2CaCuSn2F14,0.0
mp-1228757,Ba2CaEu2Ti3(CuO7)2,0.0
mp-20841,Ba2CaIrO6,0.0
mp-1214679,Ba2CaNbO6,0.0
mp-6739,Ba2CaOsO6,0.0
mp-12417,Ba2CaReO6,0.0
mp-1214757,Ba2CaSm2Ti3(CuO7)2,0.0
mp-1228548,Ba2CaTb2Ti3(CuO7)2,0.0
mvc-13047,Ba2CaTl2(CuO3)4,0.0
mp-6885,Ba2CaTl2(CuO4)2,0.0
mp-632802,Ba2CaTlCu2O7,0.0
mp-8093,Ba2Cd,0.0
mp-1104804,Ba2Cd2Sb3,0.0
mp-568744,Ba2Cd3Bi4,0.0
mp-1096555,Ba2CdGa,0.0
mp-1183204,Ba2CdHg,0.0
mp-1183281,Ba2CdIn,0.0
mp-1206134,Ba2CdOsO6,0.0
mp-1188260,Ba2CdP3O11,0.0
mp-867333,Ba2CdPb,0.0
mp-551702,Ba2CdReO6,0.0
mp-1079632,Ba2CeNbO6,0.0
mp-1078874,Ba2CeTaO6,0.0
mp-1207049,Ba2Cl2F,0.0
mp-1041033,Ba2Co2F11,0.0
mp-1076439,Ba2Co2O5,0.0
mp-1048496,Ba2Co3O7,0.0
mp-1048116,Ba2Co3O8,0.0
mp-646670,Ba2Co4ClO7,0.0
mp-510717,Ba2Co9O14,0.0
mp-1078198,Ba2CoAg2(SeO)2,0.0
mp-1078706,Ba2CoCu2(SO)2,0.0
mp-555307,Ba2CoF6,0.0
mp-1228387,Ba2CoNiS4,0.0
mp-1228653,Ba2CoRuO6,0.0
mp-4544,Ba2CoS3,0.0
mp-24843,Ba2CoWO6,0.0
mp-1048539,Ba2Cr3O7,0.0
mp-1048124,Ba2Cr3O8,0.0
mp-31751,Ba2Cr7O14,0.002600000000000157
mp-1079901,Ba2CrMoO6,0.0
mp-1029843,Ba2CrN3,0.0
mp-559180,Ba2Cu(BO3)2,0.0
mp-1203729,Ba2Cu(C2O3)6,0.0
mp-1147542,Ba2Cu(SBr)2,0.0
mp-1147581,Ba2Cu(SCl)2,0.0
mvc-13032,Ba2Cu2HgO6,0.0
mp-23129,Ba2Cu3(BrO2)2,0.0
mp-23085,Ba2Cu3(ClO2)2,0.0
mp-1228431,Ba2Cu3BrClO4,0.0
mp-28661,Ba2Cu3P4,0.0
mp-561174,Ba2Cu4Te4Cl4O11,0.0
mp-1021669,Ba2CuC(NO)2,0.0
mp-1022726,Ba2CuH6,0.0
mp-6562,Ba2CuHgO4,0.0
mp-8790,Ba2CuO3,0.0
mp-1182377,Ba2CuO6,0.0
mp-1078741,Ba2CuOsO6,0.0
mp-1192522,Ba2CuP2O9,0.0
mp-1097397,Ba2CuPd,0.0
mp-1214731,Ba2CuSe2F,0.0
mp-6691,Ba2Dy(CuO2)4,0.0
mp-1214700,Ba2Dy2Co4O11,0.0
mp-1214693,Ba2DyCoCu2O7,0.0
mp-1214696,Ba2DyCu2HgO7,0.0
mp-622105,Ba2DyCu3O7,0.0
mp-1206026,Ba2DyMoO6,0.0
mp-13932,Ba2DyReO6,0.0
mp-6583,Ba2Er(CuO2)4,0.0
mp-1214699,Ba2ErCoCu2O7,0.0
mp-622110,Ba2ErCu3O7,0.0
mp-1214712,Ba2ErCuNi2O7,0.0
mp-1205628,Ba2ErMoO6,0.0
mp-1205977,Ba2ErReO6,0.0
mp-1214708,Ba2ErZn2CuO7,0.0
mp-1214709,Ba2Eu(CuO2)4,0.0
mp-616471,Ba2Eu2Ti2Cu2O11,0.0
mp-566287,Ba2Eu2ZnPtO8,0.0
mp-565412,Ba2Eu3Mn2(CuO6)2,0.0
mp-1102914,Ba2Eu3Si7,0.0
mp-29550,Ba2EuCl7,0.0
mp-1214711,Ba2EuCoCu2O7,0.0
mp-1214738,Ba2EuCu2HgO7,0.0
mp-622211,Ba2EuCu3O7,0.0
mp-1205758,Ba2EuMoO6,0.0
mp-13323,Ba2EuNbO6,0.0
mp-1205665,Ba2EuRuO6,0.0
mp-1228610,Ba2EuTa3Ti2O15,0.0
mp-21348,Ba2EuTaO6,0.0
mp-1196377,Ba2Fe3(P2O9)2,0.0
mp-1048495,Ba2Fe3O7,0.0
mvc-11008,Ba2Fe3O8,0.0
mp-1228429,Ba2Fe4AsP3,0.0
mp-1228508,Ba2Fe4Bi2O11,0.0
mp-18995,Ba2FeMoO6,0.0
mp-31756,Ba2FeReO6,0.0
mp-1191874,Ba2FeS3,0.0
mp-1191973,Ba2FeSe3,0.0
mp-18845,Ba2FeWO6,0.0
mp-862682,Ba2Ga2O5,0.0
mp-1228403,Ba2Ga7Ag,0.0
mp-570245,Ba2GaGeN,0.0
mp-1096236,Ba2GaHg,0.0
mp-1214720,Ba2Gd(CuO2)4,0.0
mp-1189405,Ba2Gd2Co4O11,0.0
mp-1214814,Ba2GdCoCu2O7,0.0
mp-1214767,Ba2GdCu2(HgO4)2,0.0
mp-1214867,Ba2GdCu2HgO7,0.0
mp-1207285,Ba2GdReO6,0.0
mp-1228488,Ba2Ge3,0.0
mp-1191488,Ba2Ge4Pd5,0.0
mp-1214688,Ba2HBr2,0.0
mp-1214876,Ba2HCl2,0.0
mp-1214818,Ba2HI2,0.0
mp-1207009,Ba2HfUO6,0.0
mp-8094,Ba2Hg,0.0
mp-557269,Ba2Hg3(PdO2)7,0.0
mp-866106,Ba2HgPb,0.0
mp-1096200,Ba2HgPd,0.0
mp-1096502,Ba2HgSb,0.0
mp-616166,Ba2Ho(CuO2)3,0.0
mp-6205,Ba2Ho(CuO2)4,0.0
mp-684935,Ba2Ho2Al3Si5N11O3,0.0
mp-604411,Ba2Ho2Co4O11,0.0
mp-1228474,Ba2Ho2Fe(CoO4)3,0.0
mp-1214661,Ba2HoCoCu2O7,0.0
mp-6616,Ba2HoCu3O7,0.0
mp-1205837,Ba2HoMoO6,0.0
mp-13933,Ba2HoReO6,0.0
mp-1206496,Ba2I2F,0.0
mp-1102396,Ba2In,0.0
mp-684013,Ba2In13Ir4,0.0
mp-1215000,Ba2In2(PO4)3,0.0
mp-1228509,Ba2In3Au,0.0
mp-1183329,Ba2InHg,0.0
mp-638553,Ba2InIrO6,0.0
mp-1205875,Ba2InReO6,0.0
mp-755117,Ba2IrO4,0.0
mp-1228413,Ba2La(CuO2)3,0.0
mp-1228521,Ba2La(FeO3)3,0.0
mp-706229,Ba2La2Fe2Cu2O11,0.0
mp-1214655,Ba2La2Ti2Cu2O11,0.0
mp-1214673,Ba2La2TlCu2O9,0.0
mp-1214803,Ba2La3Ti2Nb2O15,0.0
mp-743694,Ba2La4Mn5SnO18,0.0
mp-1228650,Ba2La4Ti5O18,2.3692
mp-1214652,Ba2LaCoCu2O7,0.0
mp-1214663,Ba2LaCu2HgO7,0.0
mp-622210,Ba2LaCu3O7,0.0
mp-505315,Ba2LaCu3O8,0.0
mp-15889,Ba2LaIrO6,0.0
mp-1228437,Ba2LaMn2O7,0.0
mp-1214654,Ba2LaNb(CuO4)2,0.0
mp-1228649,Ba2LaNb5O15,0.0
mp-20958,Ba2LaReO6,0.0
mp-615682,Ba2LaTa(CuO4)2,0.0
mp-1228434,Ba2LaTlCu2O7,0.0
mp-18713,Ba2Li(CuO2)3,0.0
mp-555958,Ba2Li3(PO3)7,5.451099999999999
mp-8924,Ba2LiFe2N3,0.0
mp-605860,Ba2LiN,0.0
mp-10584,Ba2LiOsO6,0.0
mp-1214633,Ba2LiTeO6,0.0
mp-767384,Ba2LiTi11O24,0.0
mp-1214701,Ba2LiUO6,0.0
mp-20324,Ba2LuCu3O7,0.0
mp-22594,Ba2LuIrO6,0.0
mp-1205836,Ba2LuMoO6,0.0
mp-1214813,Ba2LuReO6,0.0
mp-1190166,Ba2Mg(GeIr)4,0.0
mp-1813,Ba2Mg17,0.0
mp-1046498,Ba2Mg2Mn3Tl2O10,0.0
mp-1046139,Ba2Mg2Ti3Tl2O10,0.0
mp-1046491,Ba2Mg2Tl2Co3O10,0.0
mvc-3041,Ba2Mg2Tl2Cr3O10,0.0
mp-1046126,Ba2Mg2Tl2Cu3O10,0.0
mp-1046553,Ba2Mg2Tl2Fe3O10,0.0
mp-1046522,Ba2Mg2Tl2Ni3O10,0.0
mp-1046198,Ba2Mg2Tl2Sn3O10,0.0
mp-1047595,Ba2Mg3Mn4Tl2O12,0.0
mp-29564,Ba2Mg3Si4,0.0
mvc-10499,Ba2Mg3Ti4Tl2O12,0.0
mp-1046344,Ba2Mg3Tl2(CoO3)4,0.0
mvc-10565,Ba2Mg3Tl2(CuO3)4,0.0
mvc-28,Ba2Mg3Tl2(FeO3)4,0.0
mvc-132,Ba2Mg3Tl2(NiO3)4,0.0
mvc-10576,Ba2Mg3Tl2(SnO3)4,0.0
mvc-129,Ba2Mg3Tl2(WO3)4,0.0
mp-1045463,Ba2MgCu3F14,0.0
mvc-2372,Ba2MgCuNi2F14,0.0
mp-1183274,Ba2MgIn,0.0
mp-1206133,Ba2MgOsO6,0.0
mp-22441,Ba2MgReO6,0.0
mp-1183219,Ba2MgTl,0.0
mp-1048457,Ba2Mn2AlTlO7,0.0
mp-566276,Ba2Mn2Bi2O,0.0
mp-1099904,Ba2Mn2O5,0.0
mp-1048461,Ba2Mn2TlO7,0.0
mp-18787,Ba2Mn3(SbO)2,0.0
mp-1048319,Ba2Mn3AlO7,0.0
mp-1048103,Ba2Mn3AlO8,0.0
mp-1048511,Ba2Mn3O7,0.0
mp-1048172,Ba2Mn3O8,0.0
mvc-3169,Ba2Mn3Tl2O10,0.0
mp-1046513,Ba2Mn3Tl2Zn2O10,0.0
mp-1048574,Ba2Mn4Tl2Zn3O12,0.0
mp-1214669,Ba2Mn5O10,0.0
mp-1228743,Ba2MnCu(P2O7)2,0.0
mp-1228414,Ba2MnNbO6,0.0
mp-769951,Ba2MnO4,0.0
mp-1214579,Ba2MnP2F,0.0
mp-31899,Ba2MnReO6,0.0
mp-1228678,Ba2MnRuO6,0.0
mp-19045,Ba2MnZn2(AsO)2,0.0
mp-1197677,Ba2Mo15Se19,0.0
mp-6496,Ba2Na(CuO2)3,0.0
mp-1228583,Ba2Na(FeAs)6,0.0
mp-1228433,Ba2Na(SnAs)6,0.0
mp-1229309,Ba2Na2Zr2Si6O23,0.0
mp-1214950,Ba2NaCe2Ti2FeSi8HO27,0.0
mp-1183273,Ba2NaIn,0.0
mp-1019519,Ba2NaO,0.0
mp-22442,Ba2NaOsO6,0.0
mp-1214646,Ba2NaUO6,0.0
mp-28675,Ba2Nb15O32,0.0
mp-19796,Ba2Nb5O9,0.0
mp-753689,Ba2Nb8O11,0.0
mp-1228495,Ba2NbCu2Pb2ClO8,0.0
mp-34023,Ba2NbO,0.0
mp-1078969,Ba2NbVO6,0.0
mp-614981,Ba2Nd(CuO2)3,0.0
mp-1202625,Ba2Nd2Al3(B4O9)3,0.0
mp-1228516,Ba2Nd2Fe(CoO4)3,0.0
mp-1228604,Ba2Nd2Fe3CoO12,0.0
mp-557043,Ba2Nd2Ti2Cu2O11,0.0
mp-1214600,Ba2NdCoCu2O7,0.0
mp-1214587,Ba2NdCu2HgO7,0.0
mp-22719,Ba2NdCu3O7,0.0
mp-1214598,Ba2NdDyTi2Cu2O11,0.0
mp-1079169,Ba2NdIrO6,0.0
mp-19389,Ba2NdMoO6,0.0
mp-10062,Ba2NdNb(CuO4)2,0.0
mp-1205556,Ba2NdReO6,0.0
mp-1228402,Ba2NdTlCu2O7,0.0
mp-25098,Ba2Ni(NO2)6,0.0
mp-1048554,Ba2Ni3O7,0.0
mvc-13721,Ba2Ni3O8,0.0
mp-1095498,Ba2Ni5Ge4,0.0
mp-1147774,Ba2NiRuO6,0.0
mp-1147775,Ba2OsO4,0.0
mp-28894,Ba2P3Pd,0.0
mp-685613,Ba2PPd2,0.0
mp-1103028,Ba2Pd,0.0
mp-6123,Ba2Pd(OF)2,0.0
mp-984876,Ba2Pd2O5,0.0
mp-1093847,Ba2PdAu,0.0
mp-1214585,Ba2Pr(CuO2)3,0.0
mp-6779,Ba2Pr(CuO2)4,0.0
mp-1229013,Ba2Pr3(CoO3)5,0.0
mp-1214590,Ba2PrCoCu2O7,0.0
mp-20936,Ba2PrCu3O7,0.0
mp-614964,Ba2PrCu3O8,0.0
mp-6135,Ba2PrIrO6,0.0
mp-1228503,Ba2PrNb(CuO4)2,0.0
mp-1228494,Ba2PrPbO6,0.0
mp-9319,Ba2PrPtO6,0.0
mp-6692,Ba2PrSbO6,3.771
mp-1228394,Ba2PrSnO6,0.0
mp-675690,Ba2PtAu,0.0
mp-1205598,Ba2PuMnO6,0.0
mp-1205514,Ba2PuTaO6,0.0
mp-1207069,Ba2PuZnO6,0.0
mp-32306,Ba2ReNiO6,0.0
mp-505390,Ba2ReO5,0.0
mp-559442,Ba2Ru7O18,0.0
mp-1025237,Ba2RuO4,0.0
mp-9908,Ba2Sb,0.0
mp-1048150,Ba2Sb3O7,0.0
mp-1042189,Ba2Sb3O8,0.0
mp-863842,Ba2ScFeAsO3,0.0
mp-10302,Ba2ScIrO6,0.0
mp-1205674,Ba2ScOsO6,0.0
mp-1206861,Ba2ScReO6,0.0
mp-20709,Ba2ScSbO6,0.0
mp-9867,Ba2Si3Ag,0.05239999999999957
mp-1228346,Ba2Si3Au,0.0
mp-29819,Ba2Si3Ni,0.0
mp-622576,Ba2Sm(CuO2)3,0.0
mp-1214577,Ba2Sm(CuO2)4,0.0
mp-1214615,Ba2Sm2Ti2Cu2O11,0.0
mp-1214802,Ba2Sm3Si3SeO12,0.0
mp-1214586,Ba2SmCoCu2O7,0.0
mp-21451,Ba2SmCu3O7,0.0
mp-13929,Ba2SmReO6,0.0
mp-1981,Ba2Sn,0.0
mp-1048188,Ba2Sn3O7,0.0
mp-1182572,Ba2SnO16,0.0
mp-541832,Ba2SnS4,1.9551
mp-583630,Ba2SnTe5,0.0
mp-1229074,Ba2Sr(IrO3)3,0.0
mp-1228498,Ba2Sr(PO4)2,5.414899999999999
mp-1099763,Ba2Sr2Co(CuO4)3,0.0
mp-1099812,Ba2Sr2CoCu3O10,0.0
mp-1228705,Ba2Sr2La2Cu6O13,0.0
mp-1228545,Ba2Sr2Y2Cu6O13,0.0
mp-1099742,Ba2Sr6Co3(CuO4)5,0.0
mp-1076264,Ba2Sr6Co3Cu5O24,0.0
mp-1076429,Ba2Sr6Co5(CuO8)3,0.0
mp-752682,Ba2Sr7I18,3.419
mp-1064865,Ba2SrNp,0.0
mp-28457,Ba2Ta15O32,0.0
mp-1228449,Ba2TaCu2Pb2ClO8,0.0
mp-1228319,Ba2TaMnO6,0.0
mp-505223,Ba2Tb2Ti2Cu2O11,0.0
mp-12410,Ba2TbIrO6,0.0
mp-1205597,Ba2TbMoO6,0.0
mp-13931,Ba2TbReO6,0.0
mp-1228305,Ba2TbSnO6,0.0
mp-1183327,Ba2Tc2O5,0.0
mp-1195123,Ba2ThCrTe7,0.0
mp-28917,Ba2Ti13O22,0.0
mp-1046011,Ba2Ti2AlTlO7,0.0
mp-1103080,Ba2Ti2Fe2As4O,0.0
mp-1076521,Ba2Ti2O5,0.0
mp-1048025,Ba2Ti3AlO7,0.0
mp-1041926,Ba2Ti3AlO8,0.0
mp-1046267,Ba2Ti3Tl2Zn2O10,0.0
mp-1228517,Ba2Ti4O13,0.0
mp-1047851,Ba2Ti4Tl2Zn3O12,0.0
mp-1228536,Ba2TiFeO6,0.0
mp-1214713,Ba2TiMn2Si2PO13,0.0
mp-1228354,Ba2TiVS6,0.0
mp-1046253,Ba2Tl2Bi3O10,0.0
mp-1046501,Ba2Tl2Co3O10,0.0
mp-1046536,Ba2Tl2Cr3O10,0.0
mp-1228366,Ba2Tl2Cu2HgO8,0.0
mp-6027,Ba2Tl2CuO6,0.0
mp-1046571,Ba2Tl2Fe3O10,0.0
mp-1046567,Ba2Tl2Mo3O10,0.0
mp-1046591,Ba2Tl2Ni3O10,0.0
mp-1046128,Ba2Tl2Sb3O10,0.0
mp-1046323,Ba2Tl2Sn3O10,0.0
mp-1046584,Ba2Tl2W3O10,0.0
mp-1046507,Ba2Tl2Zn2Co3O10,0.0
mp-1046610,Ba2Tl2Zn2Cr3O10,0.0
mp-1046130,Ba2Tl2Zn2Cu3O10,0.0
mp-1046524,Ba2Tl2Zn2Fe3O10,0.0
mp-1046545,Ba2Tl2Zn2Ni3O10,0.0
mp-1046194,Ba2Tl2Zn2Sn3O10,0.0
mp-1048339,Ba2Tl2Zn3(CoO3)4,0.0
mvc-10555,Ba2Tl2Zn3(CuO3)4,0.0
mp-1048584,Ba2Tl2Zn3(FeO3)4,0.0
mvc-148,Ba2Tl2Zn3(NiO3)4,0.0
mvc-10620,Ba2Tl2Zn3(SnO3)4,0.0
mvc-144,Ba2Tl2Zn3(WO3)4,0.0
mp-1046056,Ba2TlBi2O7,0.0
mp-866292,Ba2TlCd,0.0
mp-1046346,Ba2TlCo2O7,0.0
mp-1147544,Ba2TlCu3O7,0.0
mp-619126,Ba2TlCuHgO5,0.0
mp-20942,Ba2TlCuO5,0.0
mp-1046342,Ba2TlFe2O7,0.0
mp-1183313,Ba2TlHg,0.0
mp-1048444,Ba2TlMo2O7,0.0
mvc-2990,Ba2TlNi2O7,0.02439999999999997
mp-1045996,Ba2TlSb2O7,0.0
mp-1046053,Ba2TlSn2O7,0.0
mp-1046359,Ba2TlV2O7,0.0
mp-1046350,Ba2TlW2O7,0.0
mp-984724,Ba2TlZn,0.0
mp-6710,Ba2Tm(CuO2)4,0.0
mp-684728,Ba2Tm2Al3Si5N11O3,0.0
mp-622108,Ba2TmCu3O7,0.0
mp-1205595,Ba2TmMoO6,0.0
mp-13934,Ba2TmReO6,0.0
mp-675410,Ba2U2O3,0.0
mp-1063920,Ba2UCo,0.0
mp-24858,Ba2UCoO6,0.0
mp-1195734,Ba2UCrTe7,0.0
mp-1078441,Ba2UCu2Se5,0.0
mp-1190025,Ba2US6,0.0
mp-1205557,Ba2UTiO6,0.0
mp-1195439,Ba2UTiTe7,0.0
mp-1183325,Ba2V2O5,0.0
mvc-1364,Ba2V3O7,0.0
mp-1048112,Ba2V3O8,0.0
mp-1048501,Ba2W3O7,0.0
mp-1048194,Ba2W3O8,0.0
mp-643471,Ba2Y(Cu2O3)2,0.0
mp-22215,Ba2Y(CuO2)3,0.0
mp-6790,Ba2Y(CuO2)4,0.0
mp-1228469,Ba2Y2Co3CuO10,0.0
mp-1214560,Ba2Y2Co4O11,0.0
mp-1228200,Ba2Y2FeCo2CuO10,0.0
mp-8985,Ba2YC2(O2F)3,5.263999999999999
mp-1048316,Ba2YCo3O7,0.0
mp-1214571,Ba2YCoCu2O7,0.0
mp-1214583,Ba2YCu2HgO7,0.0