task_id,pretty_formula,band_gap
mp-8042,ZrGeO4,3.739500000000001
mp-8058,YAsO4,3.6598
mp-765048,LiV2OF5,1.7492
mp-1100405,ScTeRh,0.3807999999999998
mp-8000,SrSn(BO3)2,3.6113
mp-8014,RbRuF6,1.264
mp-8033,PuF3,0.053499999999999666
mp-765037,LiMnOF2,1.0331
mp-775985,V2NiO6,1.7371
mp-775986,NaNiBO3,3.0241
mp-755380,Ce2Dy2O7,1.8007
mp-22894,AgI,1.3877000000000002
mp-29754,SrLiN,0.2574000000000001
mp-7964,YAlO3,3.4965
mp-7972,RbLaO2,3.522
mp-7973,RbNdO2,3.4261
mp-7976,RbGdO2,3.0036000000000005
mp-7974,RbSmO2,3.4848
mp-775910,ZrO2,3.3166
mp-768383,SmBiO4,0.4836
mp-765031,MnOF,0.8831
mp-775935,ZrO2,3.8528
mp-765036,Li2MnOF3,0.5323
mp-775975,La2Nb2N2O5,1.4661
mp-775980,ZrO2,3.576
mp-772869,Ta7InO19,2.0335
mp-753654,LiSnPO4,3.0124000000000004
mp-29761,UCO5,2.2608
mp-764956,Li2CoSiO4,2.8004999999999995
mp-775789,Li2VF6,2.1977
mp-775792,AlVO3,2.1442
mp-764974,Li2V(OF)2,1.6495999999999995
mp-775811,LiVFeO4,1.1134999999999995
mp-764984,FeOF,0.8653000000000004
mp-775831,TiMn2O6,1.3592999999999995
mp-7929,Rb2PtS2,1.2521
mp-7937,NaNbS2,0.6250999999999998
mp-775845,NaCoO2,0.4769000000000001
mp-7939,NaNbSe2,0.5013999999999994
mp-768016,Zn3Ni7O10,1.7523
mp-7949,Rb2GeF6,5.796
mp-7950,ThSeO,0.7690000000000001
mp-7951,ThSe2,0.6304999999999996
mp-7954,Nd2O3,1.5703
mp-7650,RbScO2,3.4540999999999995
mp-7955,Li3Sb,0.4833000000000003
mp-765000,Li5MnCr3O8,1.4197999999999995
mp-7008,GaAg(PSe3)2,0.6647999999999996
mp-686908,TmCoO3,0.07139999999999969
mp-7028,YbOF,2.1587
mp-7651,ThSiO4,4.662000000000001
mp-1105252,Pr3Bi4Au3,0.38730000000000064
mp-614005,VCuO3,0.8024
mp-758320,Li2CuF4,0.857
mp-782699,Co6OF11,0.8072999999999999
mp-775726,Li2Ni3SbO8,0.22350000000000006
mp-775729,Li4V3CrO8,0.9862000000000002
mp-764922,VF5,3.1601
mp-764923,VF4,2.7285
mp-675369,NaNO2,0.0291
mp-782705,Cr3O8,0.3294
mp-675402,CuAgO2,0.1431
mp-782715,Li2CoOF3,1.1839
mp-775745,Li2Mn3NbO8,0.6665000000000001
mp-782717,Ta2CrNO5,1.0376000000000003
mp-782719,LiVF4,2.0969
mp-767699,LiVF4,2.2028
mp-775757,HfO2,4.0165000000000015
mp-783902,Dy2V2O7,0.4744000000000002
mp-775777,LiFeF4,3.1241
mp-775778,LiFeF3,3.2665
mp-7891,Mg3As2,0.8711000000000002
mp-7895,Rb2O2,1.7600000000000002
mp-7905,SiO2,4.7647
mp-8037,BaThO3,3.2009000000000003
mp-772850,La2Hf2O7,4.2506
mp-765140,VF5,2.7760000000000002
mp-8414,K2HfF6,6.8976000000000015
mp-23885,SrH12(ClO3)2,5.0474999999999985
mp-1094008,Zn(GaS2)2,0.8921999999999999
mp-7982,Mg2SiO4,4.3954
mp-997028,AgO2F,0.4943
mp-755483,Al2O3,4.0029
mp-760386,CsClO3,5.4534
mp-9775,NaSrAs,0.8077000000000001
mp-1222302,LiFeO2,0.08809999999999985
mp-1180271,MgO2,2.3662
mp-675037,Sm2EuS4,0.4843000000000002
mp-850160,Li7(CoO3)2,0.4087000000000001
mp-767644,LiV(PO4)2,0.6470999999999998
mp-764820,Fe2OF3,0.4536999999999998
mp-767647,LiVF4,2.4038
mp-984766,Ca(BH4)2,5.0920000000000005
mp-782664,Ti3MnO8,1.8237
mp-757238,GdAsO4,2.9683
mp-675142,Yb3DySb3,0.5232000000000001
mp-764895,LiVF4,2.3275
mp-767659,Li3MnFe3O8,0.3240000000000003
mp-697836,SrUO4,0.7591000000000001
mp-782682,FeOF,0.9966
mvc-98,Zn(CoS2)2,0.5999999999999996
mp-782689,CoO2,1.2249
mp-764906,LiV2O4,0.8302999999999998
mp-7581,MoSe2,1.3611
mp-782691,LiFe5(OF2)4,1.6634
mp-782693,Li2CoOF3,0.6847
mp-7831,MgIn2O4,1.838
mp-7038,TlPd2Se3,0.1379999999999999
mp-704185,Fe4(PO4)3,0.5861999999999998
mp-768800,Ho2(SO4)3,5.8704
mp-704231,Cr(PO3)4,0.2695
mp-13926,Rb2NaYF6,6.4704
mp-18293,SiP2O7,5.456
mp-1009756,Ca2Pb,0.6495000000000002
mp-756156,Rb2ZrO3,3.5441
mp-764642,Li2CoSiO4,2.5197
mp-35035,KCN,5.2873
mp-7492,LaBO3,4.0196
mp-752669,CeHfO4,1.7975999999999996
mp-764426,LiFeO3,0.049299999999999684
mp-764433,Li2VO2F,0.03739999999999988
mp-966801,LiCaBO3,5.327999999999999
mp-775448,Li2Ti3NiO8,2.8272
mp-7535,Li5AlO4,4.795
mp-753693,Ho2Ge2O7,3.8395
mp-9702,Sr3BPO3,2.0155
mp-674783,Tm2MnS4,0.9512999999999998
mp-754843,Na2Ti2O5,3.0583
mp-754845,La3Ti2N3O4,0.9397999999999992
mp-7825,K2GeF6,5.7997999999999985
mp-775652,LiNiPO4,3.6873
mp-971707,Tm2Mg2O5,2.1944
mp-767632,VPO4,2.0714
mp-755738,Rb2O,1.6455
mp-6978,RbHoO2,3.6251
mp-972937,ScAlCO,0.3802000000000003
mp-757235,Li2CuF4,0.2969
mp-775944,Ba2Ti6N2O11,1.4450000000000005
mp-689934,Li2CrP2O7,3.6262
mp-768656,NaSbCSO7,3.9612
mp-768776,LiBiB2O5,3.5923000000000003
mp-768789,LiBiB2O5,3.0802000000000005
mp-690244,Lu4V4O13,0.3342999999999998
mp-3098,AlCuO2,1.8148
mp-769004,Li3BiO4,0.9495
mp-8393,Tl3SbS3,1.5919999999999999
mp-765541,Li2VF4,2.6512
mp-22375,In2S3,0.28000000000000025
mp-31222,Th6Mn23,0.002300000000000857
mp-655353,Ru(CO)4,2.2135
mp-23173,HgI2,2.3184
mp-765135,WOF4,4.4088
mp-15748,Sr2CuSi2O7,0.15869999999999962
mp-767169,Mn4OF6,1.7613
mp-8360,RbTe,0.8245999999999998
mp-7609,SbOF,3.3084
mp-776813,LiMnF4,1.1844
mp-8380,K2Si4O9,4.6244
mp-9425,Sr2GaCuSO3,0.5552000000000001
mp-8387,Tl6TeO6,1.5632999999999997
mp-765433,LiMnF3,3.6288
mp-6730,Sr3ZnPtO6,2.5661
mp-9475,KNO3,3.2872
mp-9515,Al2SiO5,5.544199999999999
mp-9516,Al2SiO5,5.4621
mp-9523,Rb(ThSe3)2,1.0211
mp-849232,LiFeF3,3.2868
mp-673244,Bi2O3,0.9078000000000008
mp-766454,TiO2,2.0938
mp-9595,NbInO4,3.0227
mp-7618,Cs3YF6,5.3385
mp-7467,RbCuO2,0.9136
mp-7472,RbAuO2,1.4611
mp-764358,LiFeF3,3.5688
mp-778224,La4CoO8,0.8837999999999999
mp-9630,TlCrS2,0.06810000000000027
mp-7523,Th2TeN2,1.6182999999999996
mp-6964,NaTbO2,3.8923
mp-971632,GaP,0.2108000000000008
mp-971682,Si3N2,0.12220000000000032
mp-775906,Y2O3,4.3921
mp-765024,LiVF5,1.9205
mp-775911,La2Nb2N2O5,1.8866
mp-775918,LaTiNO2,1.2144000000000004
mp-775929,La2Nb2N2O5,1.4554999999999998
mp-8054,NaSc(GeO3)2,3.5523
mp-6880,Sb2OsC6(OF2)6,4.6347000000000005
mp-6891,Sb2RuC6(OF2)6,4.7623
mp-775938,TiO2,2.0838999999999994
mp-765066,LiMnVP2(HO5)2,0.8675999999999997
mp-768765,Li2Bi2B2O7,3.1397
mp-775969,V3Cr3(WO8)2,1.0399000000000005
mp-768771,Li3Bi(BO3)2,3.3808000000000007
mp-765069,TiV15O24,0.2524000000000006
mp-690170,YbV4O8,0.9089
mp-765098,MnFeO3,0.001700000000000479
mp-765088,Li5V3P8O29,1.1016
mp-6972,YCuO2,2.6307
mp-600033,SiO2,5.4289
mp-1018019,PbS,0.008399999999999963
mp-764899,Li2FeOF3,2.3292
mp-1094092,NaPH6,1.0907
mp-568890,Tl2CdGeTe4,0.35100000000000003
mp-569994,CdI2,2.3611
mp-570256,Ag2HgI4,1.0991999999999995
mp-555514,OsOF5,0.8055000000000001
mp-10281,ZnS,2.0481
mp-2245,Si3N4,4.654700000000001
mp-6680,RbCa2Ta3O10,2.2015
mp-9173,TiO2,2.4757000000000007
mp-9179,Ba3Zr2S7,0.5049999999999999
mp-9186,CdSeO3,3.0881
mp-7384,SmF3,7.7298
mp-9202,Cs2ZrCu3F12,0.0412
mp-9228,HgSeO3,2.5449
mp-7405,SmAlO3,4.7681
mp-764305,Mn2OF2,1.1644
mp-9272,TlPt2S3,1.0242000000000004
mp-9274,Rb3Sb2Au3,1.222
mp-6721,Sr3LiRuO6,0.39899999999999997
mp-8130,CaGeO3,2.0247
mp-8133,LaPO4,4.7024
mp-7050,ZrTlCuSe3,0.2367999999999997
mp-8201,Rb3PdF5,2.2341
mp-8203,Zr(PS3)2,1.5319000000000005
mp-776774,Li3FeF5,4.2166000000000015
mp-765389,LiNiPO4,2.9667
mp-8262,K2P3,0.7095000000000002
mp-672326,In3Ru,0.20979999999999954
mp-7598,NbAs2,0.027499999999999858
mp-776791,LiFeF4,3.7901
mp-765409,LiCoPO4,2.2678000000000003
mp-760361,H3NCl,2.6961
mp-8453,RbNaO,1.9856
mp-9480,KAlSiO4,4.501
mp-9488,SmOF,4.6648000000000005
mp-9497,Pr2C(NO)2,3.717
mp-9499,Sm2C(NO)2,3.8823
mp-9498,Nd2C(NO)2,3.7725
mp-8470,NaPrO2,3.1969000000000003
mp-9821,RbSbF6,4.8849
mp-9566,Sr(MgSb)2,0.9813
mp-9579,AlTlSe2,0.5872999999999999
mp-9580,TlGaSe2,0.5609999999999999
mp-9581,Th(CuP)2,0.12080000000000002
mp-983061,Sr(AsO3)2,3.2452
mp-9619,Th(FeP3)4,0.5338000000000012
mp-7476,RbDyO2,3.6027000000000005
mp-7477,RbErO2,3.6466
mp-7478,RbTmO2,3.6638
mp-7480,RbLuO2,3.6931
mp-1080730,Sr2ZrMnO6,1.3974000000000006
mp-1100421,VSnRh,0.4463999999999997
mp-14037,NaTl2RhF6,1.7802999999999998
mp-32331,NiP2O7,0.00550000000000006
mp-541097,Zr3Pb(O2F3)2,2.8390000000000004
mp-556880,SiO2,5.0203000000000015
mp-559252,NaIO3,3.33
mp-6564,Sr2MgSi2O7,4.495900000000002
mp-6606,SrYSi4N7,2.7441999999999998
mp-684904,K2O,0.5071
mp-685002,Sr2Er2Al3Si5N11O3,0.17579999999999973
mp-686043,Gd3NbO7,2.3694000000000006
mp-686710,NiH6C2(SN2)2,0.5696000000000001
mp-6896,Rb2NaCo(CN)6,4.3389000000000015
mp-689964,CoP2O7,0.3529
mp-690,P4S5,2.4779
mp-690058,FeP2O7,0.18420000000000006
mp-699377,MnSiO3,2.4641
mp-6995,SrAl12O19,4.4463
mp-703476,P2H16N4O7,4.7257
mp-704102,MoSO6,3.0618000000000003
mp-704145,Li2Mn2(SO4)3,4.4239
mp-704193,Rb6U5V2O23,1.7469999999999999
mp-7140,SiC,2.3028000000000013
mp-7220,NaY3SiS7,2.1984
mp-7238,NdBO3,4.6987
mp-726,SeO2,3.2709
mp-7310,ZrPbF6,5.0238
mp-7337,NdAl3(BO3)4,5.3192
mp-764965,Li3VF6,2.494
mp-764973,LiVP2O7,2.5941
mp-764975,LiMnF4,2.1819
mp-764977,Li2FeOF3,2.4855
mp-764978,LiCo(CO3)2,0.3558
mp-764980,LiMnF5,2.2836
mp-764998,LiCo(CO3)2,0.7184
mp-765012,V3O2F5,1.2925999999999995
mp-765038,LiMnOF2,1.021
mp-765042,Li2VCrP2(HO5)2,2.1447000000000003
mp-765058,Li2VCr(P2O7)2,2.1127
mp-765060,Li2VCrP2(HO5)2,2.09
mp-765065,Li2VCrP2(HO5)2,1.6957000000000004
mp-765406,Nd2NiO4,0.6717999999999997
mp-765410,LiNiOF,2.1882
mp-768209,NaSnPCO7,3.1157
mp-768484,Sb2(SO4)3,3.0776
mp-768517,Tm2GeO5,3.5729
mp-768519,Y2TeO6,1.6015
mp-768633,Sr2LaCl7,4.0753
mp-768658,La(HO)3,4.1594
mp-768736,LiBiB2O5,2.8952
mp-768755,Li2Sn2(SO4)3,3.9607
mp-771753,Li2Ti3MnO8,0.6227
mp-771976,Rb2Be2O3,3.6274
mp-772301,LiFePO4,3.3635
mp-772348,Li3FeO3,1.8384
mp-775805,Zr2N2O,1.9188
mp-775827,VCrO3,1.2588
mp-775847,V2O5,2.5161
mp-775978,Na4Sb2C4SO16,0.42920000000000025
mp-776784,Li3FeF6,3.8123
mp-7768,Th2SeN2,1.3591999999999995
mp-776814,LiMnF3,3.4012
mp-7769,Th2SN2,1.4196999999999995
mp-7770,Sr(ZnAs)2,0.25660000000000016
mp-7771,Sr(CdAs)2,0.13670000000000027
mp-780817,FeOF,1.7403000000000002
mp-780821,Li3VCr3O8,1.3912
mp-780822,Fe6OF11,0.8029000000000002
mp-780824,Li2FeOF3,2.113
mp-780833,Li2MnSiO4,2.9620999999999995
mp-780834,Li2FeF4,3.6802
mp-780839,LiFeF3,3.3554
mp-795584,RbAl(SO10)2,0.5966
mp-7986,CaSnO3,1.3904999999999994
mp-7999,Y2Si2O7,4.927899999999998
mp-8207,Zn(PtO2)3,0.3113000000000001
mp-8231,ZrSO,0.7935999999999996
mp-8256,ZnPtF6,2.08
mp-8275,CdGeO3,1.4172
mp-8285,ZnGeO3,2.1201
mp-8298,Sr4P2O,1.2134
mp-8348,TlSbF6,4.3334
mp-8354,LaF3,5.761
mp-8374,Na2S,1.681
mp-850669,YTa3O9,2.7163000000000004
mp-8507,Sr(P3Pt2)2,0.3733000000000004
mp-850866,CeHfO4,1.5339
mp-8714,Rb2MnS2,1.1062999999999998
mp-8774,Rb3CO3F,3.4607
mp-8872,RbNa2BO3,2.9275
mp-8898,TaAlO4,3.2754
mp-8958,RbPd2F5,0.2456
mp-8979,TaInO4,3.5676
mp-9008,RbTeAu,1.1079
mp-9010,RbAuS,1.9868
mp-9107,NaZrCuS3,0.5438000000000001
mp-9167,SrCN2,3.6025000000000005
mp-9258,SiO2,4.0015
mp-9348,KRb2ScF6,6.5217
mp-9362,RbPrS2,2.2686
mp-9363,RbNdS2,2.2646
mp-9364,RbSmS2,2.2721
mp-9365,RbTbS2,2.3064
mp-9366,RbHoS2,2.335500000000001
mp-9367,RbErS2,2.3521
mp-9368,RbTmS2,2.3680000000000003
mp-9370,RbLuS2,2.4006
mp-9382,SrZrN2,0.23580000000000026
mp-9383,SrHfN2,0.31540000000000035
mp-9385,RbAu3Se2,1.7326
mp-9392,Sr4Al6TeO12,2.8466000000000005
mp-9723,Sr4Li(BN2)3,2.0686
mp-973064,LaH3,0.4718999999999998
mp-973261,Mg2SnO4,1.9033999999999995
mp-9819,RbAsF6,5.0688
mp-984723,DyAlO3,2.9473999999999987
mp-1096875,CrAgO2,1.114
mp-1110689,Rb2CuMoBr6,0.3540000000000001
mp-23037,CsPbCl3,2.1892
mp-2739,TeO2,2.7971000000000004
mp-32539,W(ClO)2,1.788
mp-32684,HBr,4.4860000000000015
mp-33449,Tb5AgS8,1.7047999999999996
mp-33746,SrCO3,4.2741
mp-34081,NaYF4,6.936
mp-541937,Zn(InS2)2,0.13640000000000008
mp-550593,Li4CO4,3.9985
mp-605853,Li4CO4,5.5673
mp-625488,Zn(HO)2,2.4946
mp-642991,TbH3(CO2)3,3.9948
mp-642999,TmH3(CO2)3,3.9339
mp-650727,Rb3NiF7,0.8116
mp-6509,Sr3GaO4F,3.6831
mp-674981,Ag3SI,0.2599999999999998
mp-675438,Li2UBr6,0.15039999999999987
mp-675446,NaRuO2,0.10020000000000008
mp-675679,UTa2O7,0.1501999999999999
mp-677191,BaLaZnRuO6,0.4316000000000004
mp-687096,V2Cu2O7,0.026000000000000027
mp-687212,Cr(PO3)4,0.0025000000000000573
mp-690271,Ca2Al4Si4H18O25,0.8968
mp-698594,Sm2Mo2O7,0.2610000000000001
mp-698647,LiVO2,0.08089999999999975
mp-698654,NaMgFe(SO4)3,1.8083
mp-6987,Sr(GaTe2)2,0.4495999999999998
mp-703545,SbH6C(NCl2)3,1.5847
mp-7129,Rb2Ti(CuS2)2,1.6512999999999995
mp-7199,RbPrTe4,0.18599999999999994
mp-720,TlF,3.2045
mp-7288,Sc2SO2,2.0102
mp-730,P2Pt,1.0223000000000004
mp-7470,RbCuO,1.1566000000000003
mp-758856,LiCuPO4,0.4650000000000003
mp-758955,LiCuPO4,0.07699999999999996
mp-763184,Li3Cr3CoO8,0.5210999999999997
mp-763430,Li3MnF6,1.4794
mp-763636,Li2Mn3NiO8,0.4867999999999997
mp-763702,Li(CoO2)2,0.5082999999999998
mp-763828,Li2Co(CO3)2,2.1152
mp-764309,VOF,1.6544
mp-764944,LiMn(CO3)2,1.6734
mp-764957,Li2CoSiO4,2.7567
mp-764959,VF5,2.8066000000000004
mp-764960,LiCr(CO3)2,3.1033
mp-765021,Li2V3(P2O7)2,2.9492000000000003
mp-765061,Li2VFeP2(HO5)2,1.4969
mp-767723,LiV2F9,1.8537
mp-768350,Ba2YF7,6.5535
mp-768396,TmSeO3,1.7231999999999998
mp-768423,Li3VS4,0.9411999999999998
mp-768467,Bi2(SO4)3,3.4489
mp-7716,SbTe,0.03479999999999972
mp-771614,LiVO2,1.3702
mp-771624,Li2VCr2O6,1.8001999999999998
mp-771663,LiV2O4,0.4270999999999998
mp-771664,Li2VNiO4,1.7009
mp-771665,Li2MnNiO4,0.29559999999999986
mp-771682,Li2TiV2O6,0.9608999999999996
mp-7723,NaAlF4,5.7761999999999984
mp-7724,Li2UO4,2.0658000000000003
mp-7725,Na2UO4,2.0224
mp-7726,Rb2UO4,1.8996
mp-775762,AgPO3,2.1168
mp-775763,AlBiO3,3.0461
mp-775767,AgAsO3,0.5616999999999999
mp-775787,Hf2N2O,1.6197999999999997
mp-775788,Hf2N2O,1.3567
mp-775907,Y2O3,3.5727
mp-775922,SrNb3NO7,1.5305999999999995
mp-775931,Li2FeS2,0.13339999999999996
mp-780656,Na2BiO3,1.1840000000000002
mp-8128,NaNdO2,3.3339
mp-8136,ThSO,1.114
mp-8145,RbScO2,3.3017000000000003
mp-8176,RbTlO2,0.8480999999999996
mp-8191,Cs2PtF6,2.4806
mp-8192,Rb2PtF6,2.6425
mp-850488,LiCoSiO4,1.0800999999999998
mp-850952,Li2Mn3(BO3)3,0.034799999999999935
mp-8511,PF5,7.0881
mp-8994,Rb2NbF6,0.21979999999999975
mp-9056,ZrPdF6,0.9909
mp-9076,NaTmS2,2.3621
mp-9080,CsPrS2,2.1610000000000005
mp-9086,CsDyS2,2.1448
mp-9089,CsTmS2,2.1573
mp-9126,Sr(SbO3)2,2.779
mp-9250,RbLiSe,2.3089
mp-9257,Yb(CdSb)2,0.09539999999999972
mp-9298,Sr(AuO2)2,1.5705999999999998
mp-973185,ScAgO2,2.0645
mp-9812,ZnCO3,3.5639
mvc-11960,MgV2O5,2.1854000000000005
mvc-11965,MgMn2O5,0.18659999999999988
mvc-11970,V2ZnO5,1.9832
mvc-12117,Mg(CoO2)2,1.9704999999999997
mvc-12170,CoO2,0.14439999999999995
mvc-12181,Ca(CoO2)4,0.31910000000000016
mvc-12183,Mg(NiO2)2,0.6210999999999998
mvc-12546,Mn2ZnO5,0.3167
mvc-12574,NiO2,0.8079000000000001
mvc-12615,VO2,0.8183
mvc-12752,MoO3,0.8512
mvc-12771,MgV2O6,2.3412
mvc-12901,NiO2,0.8614999999999999
mvc-13203,CoO2,0.4857
mvc-13231,Nb2(CoO3)3,0.02180000000000004
mvc-13425,Mg2V3O8,0.9806
mvc-13441,ZnSnO3,1.9182999999999997
mp-1177954,Li2FeF4,3.0776
mp-1226786,Ce2ZrO6,1.9323000000000008
mp-16136,Sr3TaGa3(SiO7)2,3.8521
mp-20337,ZrPbO3,2.6739
mp-24181,CsGaP3HO10,4.6041
mp-24946,CaFeO2,0.040200000000000465
mp-28240,CSO,4.8952
mp-30530,TlClO4,4.5707
mp-34467,Zn(GaS2)2,1.8922
mp-4731,K2UF6,0.06559999999999988
mp-510032,Ge3Os2,0.8459000000000003
mp-542106,SbPd2,0.017000000000000348
mp-546794,SiO2,5.7033999999999985
mp-625199,ScHO2,4.4927
mp-641635,CaCO3,1.1850999999999998
mp-642281,Sr21In8Pb7,0.4916999999999998
mp-645295,Na4CO4,1.7704000000000002
mp-673682,Tb2YbS4,2.1164
mp-675103,Sr6Bi2O11,1.0428000000000002
mp-675120,Cu2SiTe3,0.1598999999999995
mp-675376,HoAgSe2,0.7128000000000001
mp-675511,Sm2PbS4,2.026
mp-677162,Yb(BiTe2)2,0.7308000000000003
mp-677242,K2SO4,4.9029
mp-6810,K2Ti(SiO3)3,3.2039
mp-686294,Ce4Si4N7ClO3,0.015500000000000291
mp-697856,Al2CoO4,0.030700000000000394
mp-698101,U(HO)8,2.1088
mp-6999,ScPS4,1.942
mp-7206,TcAgO4,1.6034000000000002
mp-757219,LiSiBiO4,3.3302
mp-757430,Li2CuPO4,1.2572
mp-757915,LiAgF3,0.3092000000000001
mp-758071,LiCuPO4,0.3292999999999999
mp-758174,Y6O5F8,4.9225
mp-758189,Li2Cu3F8,0.1916
mp-758283,LiCuF4,0.3093999999999999
mp-758520,LiCuPO4,0.008199999999999985
mp-758793,Li2CuSiO4,0.07820000000000027
mp-762411,LiMn3O6,0.9631000000000004
mp-762473,TaCrO4,1.9662
mp-762482,Li2Cr3O6,0.5035000000000001
mp-762484,Li2Ti3VO8,0.26270000000000016
mp-762701,LiTiFeO4,1.5982
mp-7640,Sc2Si2O7,3.764400000000001
mp-764900,VOF,1.3589000000000002
mp-764905,Li2Mn3F8,3.3757
mp-764907,Li3Fe3OF7,2.7048
mp-764910,Ni3OF5,0.2744000000000002
mp-765011,V7(O2F3)3,0.22499999999999964
mp-765013,Zr9VO20,1.714
mp-765019,LiV(PO3)4,2.2558
mp-765080,Li5V3P8O29,0.2928000000000001
mp-765083,Li5V3P8O29,0.9292
mp-765084,Li5V3P8O29,0.9379
mp-766217,Sr4Cu2O7,0.8323
mp-766842,TaCrO4,2.3097
mp-767661,Li2VF5,2.3638000000000003
mp-767671,Li3VF6,2.5445
mp-767672,LiVF5,1.9139
mp-767686,Li2Mn(SiO3)2,3.3968
mp-767692,Li2VF6,2.1057
mp-768194,Li3SbS3,1.6745
mp-768597,SrLaCl5,4.1075
mp-768615,Sr3La2Cl12,3.8064
mp-771484,VCoO4,0.6005
mp-771496,Li2V3WO8,1.5147000000000004
mp-771532,Li(NiO2)2,0.4230999999999998
mp-771549,Li2Ti3VO8,0.2568000000000001
mp-771550,Li2V3TeO8,0.29410000000000025
mp-771556,VCoO4,0.2600999999999998
mp-771583,LiMn2O4,0.07849999999999957
mp-775863,Zr2N2O,1.6522999999999994
mp-775939,YNb2NO5,2.5297
mp-780215,LiVNiO4,3.004
mp-780549,LiFe2O2F3,2.0132
mp-780588,Li3MnCr3O8,0.5042
mp-782667,Li2MnSiO4,2.7851000000000004
mp-782679,V3(O2F)2,0.4187999999999996
mp-782680,VO2F,1.1084
mp-782694,Mn3(OF2)2,0.0019000000000000128
mp-782700,TiMnV4O12,0.6605999999999999
mp-782704,Ni3OF5,0.5230999999999999
mp-782710,Li2FeF4,3.3475
mp-850992,Mn12O7F17,0.042100000000000026
mp-865269,TmCuPbSe3,1.1212
mp-8751,RbLiS,2.745
mp-8799,RbNaS,2.2948
mp-8861,Rb2MgF4,6.2257
mp-8877,Sr4Al6SO12,3.3443000000000005
mp-8939,Si2W,0.0343
mp-8962,Rb2HgF4,1.9382
mp-961646,TiTeOs,0.4298000000000002
mp-978093,Ho2S3,2.4745
mp-9799,Yb4As2O,0.9593000000000004
mp-979979,Sm3Sb4Au3,0.7693000000000003
mp-980386,Yb2Nd2O5,0.18689999999999984
mp-984806,Ba2PrRuO6,0.3306
mp-9852,TmP5,0.12230000000000008
mp-9946,ZnS,2.0368
mp-997510,Fe4OF7,1.7938999999999998
mp-998324,RbCaCl3,5.3304
mp-998421,KCaCl3,5.6173
mp-998611,RbSnCl3,2.208
mp-998620,RbSnF3,4.0036000000000005
mp-998623,TlCdF3,4.2287
mp-998744,TlGeCl3,1.3881
mp-998755,RbSrCl3,5.3416
mp-998914,K2O,0.8801
mp-998915,K2O,0.6523000000000001
mvc-10931,Ca3Fe2(WO6)2,1.6917
mvc-10945,Ca2VN3,0.1822000000000001
mvc-11086,V2O5,1.6227999999999998
mvc-11134,MgTi2O5,3.1168
mvc-11253,Ca(CrS2)2,1.1302
mvc-11650,Nb2Ni2O9,0.5091000000000001
mvc-13150,Ca(FeO2)2,1.8397999999999997
mvc-13245,SnO2,0.7893
mvc-13511,Ti2Al2O7,0.5983
mvc-5738,Ca2NiWO6,3.2588000000000004
mvc-5778,Ca2TiWO6,0.3479000000000001
mvc-5816,CoO2,0.3537000000000001
mp-1019258,SrF2,5.9356
mp-1078746,Sr2FeH6,1.3108000000000002
mp-1079373,La2TiNiO6,2.3843999999999994
mp-1217412,TbZnAgAs2,0.23159999999999936
mp-14292,Ba2NdSbO6,3.6649
mp-17389,Pr3SiAgSe7,1.4427000000000003
mp-18303,Nd3CuSnSe7,1.1974
mp-30032,TlIO4,2.0028
mp-3519,ZrSO,2.4197
mp-3870,Sr2Nb2O7,2.6839999999999997
mp-541473,Sb(OF3)2,1.3717
mp-541474,Pt(OF3)2,0.0242
mp-558828,K3Nb3(BO6)2,2.3377000000000003
mp-636813,Pb3O4,1.3059000000000005
mp-636827,TiO2,2.7733
mp-638598,GdFe3(BO3)4,2.3844000000000003
mp-638676,Nb2Co4O9,0.01780000000000026
mp-6745,LiGa(SiO3)2,4.2722
mp-675531,NaBiS2,1.09
mp-690435,Li7Mn11O24,0.8165999999999998
mp-698638,Ga2NiO4,1.4303
mp-698649,Al2NiO4,3.1328000000000005
mp-699315,Ni(PO3)3,0.29499999999999993
mp-699371,Al2NiO4,3.0762000000000014
mp-699466,ZnPH7C2N4O5,4.0413
mp-7176,RbLaSe2,2.32
mp-752580,RbNO2,2.3204
mp-753383,LiAgF4,1.5987999999999998
mp-753510,Sb3O4F,2.6375
mp-753575,BaCaI4,3.4410000000000003
mp-753621,Li5SbS,0.9053999999999998
mp-753639,LiTiPCO7,2.7115
mp-753651,SrLa2Cl8,3.7179
mp-754161,Rb3HoO3,2.0084
mp-754361,Hf2N2O,2.0601000000000003
mp-754521,Sr(IO3)2,3.4162000000000003
mp-754540,CaPbI4,2.9147
mp-754596,RbGaO2,2.4653
mp-754665,Pb(BrO3)2,3.5885
mp-754725,UCd3O6,1.7871
mp-754796,NaTmO2,4.0571
mp-754855,CaAsH5O6,3.5906
mp-755047,Ti3N2O3,1.7108000000000003
mp-755066,Al2O3,4.2446
mp-755078,Sr2Ti6N2O11,1.8456
mp-755605,TbCO3,3.985
mp-755643,Rb3InO3,1.8418
mp-755870,Na5GdO4,2.0718
mp-755999,Rb2Be2O3,3.1218
mp-756088,SrTaNO2,1.4941000000000004
mp-756273,Lu(HO)3,4.1776
mp-756293,La2HfO5,4.1804
mp-756521,BaNa2O2,1.6583
mp-756768,Li3BePCO7,5.2429999999999986
mp-756821,LiAgF3,0.03110000000000002
mp-756852,TbNbO4,2.8903
mp-756898,TmTaO4,3.8066
mp-756949,Tm2GeO5,3.451
mp-761321,LiVPO4,2.2692
mp-762371,NbOF3,3.9131
mp-762402,Li2Cr(SiO3)2,1.4258000000000002
mp-762406,LiMn4O8,0.5066000000000002
mp-763386,Li2Co2Si2O7,2.84
mp-764768,Li7(CoO3)2,0.8955000000000001
mp-764948,Li2P5WO15,3.931
mp-764952,VF5,3.0875000000000004