task_id,pretty_formula,band_gap
mp-774267,Na2LiMnPCO7,3.4490000000000003
mp-776016,K2O,1.3316
mp-776032,Ba2YI7,2.9006000000000003
mp-776066,V2P2O7,2.9811
mp-776097,HfO2,4.1383
mp-776102,Na5Bi2P(CO4)4,0.15429999999999966
mp-776134,Li4MnV3(P2O7)4,0.2330000000000001
mp-776274,Na5Bi2As(CO4)4,0.4722999999999997
mp-776280,Ti2N2O,1.0515
mp-776313,Ti2N2O,1.1019000000000003
mp-776321,WN2,0.5701999999999998
mp-776343,WN2,1.4246
mp-776363,Zr2N2O,1.6818999999999995
mp-776386,ZrO2,3.723500000000001
mp-776410,Mg(NO3)2,3.543
mp-776411,LiCoPO4F,0.4081000000000001
mp-776418,CaGd2O4,2.9964
mp-776443,YNb2NO5,2.6173
mp-776561,Na5Bi2As(CO4)4,0.3287
mp-776579,Ba3(YI6)2,2.8015
mp-776610,Ba6YI15,3.1661
mp-776637,Li3P3(WO6)2,3.7784
mp-776683,Li3FeF5,4.2154
mp-776705,LiV2OF5,0.5311999999999999
mp-776707,VOF3,2.9487
mp-776709,Li2MnVP2(O4F)2,0.5817000000000001
mp-776710,LiFeF4,3.6098
mp-776711,Li2FeO2F,1.9983
mp-776712,Li2FeO2F,2.083
mp-776713,Li3Mn4(BO3)4,0.04989999999999983
mp-776714,Li3V2P4(HO8)2,0.7027999999999999
mp-776715,Li3Fe2F7,3.377
mp-776718,Li2MnVP2(HO5)2,0.07739999999999991
mp-776721,Ti3V2Sb(PO4)6,0.028400000000000425
mp-776722,LiFe2OF5,2.1765
mp-776725,V3Cr3(SbO8)2,1.1325000000000005
mp-776727,Li2Fe3F8,2.9193
mp-776730,Li2FeF5,3.2439999999999998
mp-776731,Na3Li3Fe2P2(CO7)2,3.992
mp-776732,Li2Fe3F8,3.0509000000000004
mp-776733,Li3VF6,2.5067
mp-776734,LiFeF5,0.44540000000000013
mp-776741,Li2Mn3SbO8,0.7369999999999997
mp-777906,CoPO4,0.9531
mp-777919,Na3CoO3,1.7328
mp-777920,LiFeF4,4.1162
mp-777940,Li4V3OF11,0.9464
mp-777941,Li11V6O5F19,0.8251999999999999
mp-777974,Li3Fe8(BO3)8,1.6527
mp-778037,Li11V6O5F19,0.5932000000000002
mp-778038,Li8Mn3Fe5(BO3)8,3.0954
mp-778071,BaYF5,6.5296
mp-778086,Ba3Y2F12,6.4213000000000005
mp-778377,Ba5Y3F19,6.0969
mp-849250,LiCrP3H8O13,2.1487
mp-849331,Ti2N2O,1.0337999999999994
mp-849376,LiV2(PO4)3,1.3750000000000002
mp-849383,Mn12O7F17,0.13359999999999994
mp-10013,SnS,0.1656000000000004
mp-10089,Ba5Sb4,0.2633000000000001
mp-10094,Tm5(ReO6)2,0.006699999999999484
mp-10155,P2Ir,0.6311
mp-10164,NaGaTe2,0.2022999999999997
mp-10166,NaAlSe2,2.1495
mp-10175,KCdF3,3.1006
mp-10251,LiDyO2,3.9643
mp-11673,Sc2(SeO4)3,3.5636
mp-11677,Sr3(SiAs2)2,0.9179
mp-11691,Nd2HgO4,2.2077
mp-11709,Sm(BO2)3,5.469099999999999
mp-11711,Gd(BO2)3,2.7361000000000004
mp-11713,SiC,1.953100000000001
mp-11736,ZrSiO4,4.0306
mp-11775,RbUO3,0.41000000000000014
mp-11792,PrCuSe2,0.7445999999999993
mp-11793,SmCuSe2,0.7755999999999998
mp-11882,TiCuHg2,0.03730000000000011
mp-13514,NdBO3,5.0609
mp-13516,TmAl3(BO3)4,5.6843
mp-13530,SmAsO4,3.7322
mp-13541,Sr2Mg(BO3)2,4.579700000000001
mp-13542,ZrGeTe4,0.3803999999999999
mp-13568,NdS2,0.3370999999999995
mp-13591,RbB(CN)4,6.3156
mp-13592,TlB(CN)4,5.2178
mp-13595,Rb2UF6,0.041300000000000114
mp-13596,K2ZrF6,5.694
mp-13610,ZnPbF6,1.9585
mp-13627,Y3ReO8,1.6955
mp-13650,Ca2GeO4,2.8982
mp-13658,RbNO3,3.095
mp-13664,Sr2Ta2O7,2.928
mp-13666,Ti(PS3)2,1.4287
mp-13676,TlPO4,0.7150999999999996
mp-13694,PrCuO2,2.3548
mp-13695,SmCuO2,2.502
mp-13744,Rb3GaO3,2.4165
mp-13801,Tl2Pt2O7,0.6955
mp-13829,TlCu3S2,0.4070999999999998
mp-13852,Ge3N4,1.8873
mp-13853,P3Ir,0.08339999999999925
mp-1389,PuAl3,0.002399999999999736
mp-13900,Sr(CuO)2,1.8083
mp-13903,ZnSnF6,3.7147
mp-16096,Tl(TeMo)3,0.05950000000000076
mp-16102,ZnAg2P2O7,2.1142
mp-16116,RbSm2CuSe4,0.8441000000000001
mp-16156,Sr(Ni5P3)2,0.03539999999999921
mp-16159,Pr4Si2S3O7,2.5915
mp-16163,Pr3ReO8,1.8172
mp-16183,Tl2B2Se7,1.2811
mp-16184,Rb2B2Se7,1.7001
mp-16189,Tm4Zn5Ge6,0.08650000000000002
mp-16225,Y3Si3Rh,0.0016999999999995907
mp-16281,Cd2Sb2O7,0.5499999999999998
mp-16293,KSbO3,1.1347999999999998
mp-16296,Sc2C3,0.014199999999999768
mp-16318,RbTiS2,0.010200000000000207
mp-16321,SrCuP,0.06059999999999999
mp-16364,SnTe,0.2403
mp-1840,TiO2,2.2984
mp-2309,Tm2S3,1.1833000000000005
mp-24733,NaZnP3(H4O5)2,5.668799999999999
mp-690919,Na8Al11Si13(AgO16)3,0.0486
mp-776650,Na5CoO4,1.5196000000000005
mp-776747,V3Fe2Te(PO4)6,0.010600000000000165
mp-776751,Li4V5Co3O16,1.2870999999999997
mp-10326,Zn(ReO4)2,3.9894
mp-10334,Pr(CdP)3,0.5112999999999999
mp-10342,Tm6ReO12,0.05689999999999972
mp-10348,LaSc3(BO3)4,4.1081
mp-10386,Sm3CrSe6,0.058700000000000425
mp-10390,Ta2O5,1.2267
mp-10392,Sr3CdPtO6,2.04
mp-10401,Tl2SnF6,4.2911
mp-10402,TiTl2F6,3.8710000000000004
mp-10418,RbSbO2,2.2517
mp-10421,RbAuC2,2.1979
mp-10437,Ba(CuSe)2,0.37930000000000064
mp-10461,NaSr3SbO6,2.9189
mp-10464,CaF2,7.4573
mp-1047,Ca3N2,0.7733000000000003
mp-10477,RbAg3Se2,0.06259999999999999
mp-10481,RbAg3Te2,0.2793999999999999
mp-1049,SrAs,0.0123000000000002
mp-10495,NdCuS2,1.0786999999999995
mp-10497,SrC2,2.2909
mp-10510,BaAlBO3F2,6.0437
mp-10547,RbAuO,1.4283
mp-10552,RbBSe3,1.6415
mp-10556,Sr2LiReN4,1.8099
mp-10560,Sm3AuO6,1.7207
mp-10618,LiInSe2,0.8380999999999998
mp-11919,Sr(BeN)2,1.8494
mp-11923,Rb2TaCuS4,2.3587
mp-11924,Rb2TaCuSe4,2.0001
mp-11982,Sr2CaTeO6,3.2023999999999995
mp-12027,TaTlSe3,0.31020000000000003
mp-12112,CdP2,1.5218000000000005
mp-12177,Te2O5,1.6728999999999998
mp-12180,NaS2,1.9966
mp-12226,NaNd(PO3)4,5.603
mp-12231,SnTe3O8,2.9251
mp-12243,Rb3SiF7,5.6568
mp-12245,Rb3TiF7,3.037
mp-12263,LiAuF4,2.0738
mp-12265,SrCuF4,0.7596999999999999
mp-12286,Sr2Ta2O7,2.9093
mp-12287,La3NbO7,2.7212999999999994
mp-12307,Tl2Ge2S5,2.0942
mp-12322,RbGd2CuS4,1.0162
mp-1392,ZnP2,0.7455999999999996
mp-13946,Rb2ZrF6,6.6418
mp-13947,Rb2HfF6,7.1298
mp-13954,Rb2GeF6,5.8839
mp-13961,NdAs2,0.0376000000000003
mp-1397,Rb2Te,1.7021
mp-13971,Nd2SeO2,2.1457
mp-13972,Sm2SeO2,2.1358
mp-13983,ZnPdF6,1.5893000000000002
mp-13997,RbAlF4,6.8327
mp-14000,UCdO4,1.9388
mp-14026,Ca2Ta2O7,2.2952
mp-14099,ZnAgF3,1.589
mp-14145,Ca2Sb2O7,0.18710000000000004
mp-14150,Ca4Al6SO16,4.6683
mp-14152,SmNbO4,3.5614000000000003
mp-14161,Sr4Al6SO16,4.3935
mp-1419,S5N6,2.2908
mp-14190,NdPO4,5.3095
mp-14235,SrGa2(SiO4)2,3.9542
mp-14241,Tl2SiSe3,1.6797
mp-14242,Tl2GeSe3,1.1404999999999998
mp-14249,Th(PS3)2,2.4371
mp-14254,NdAlO3,3.0235999999999987
mp-14276,RhPb2F7,1.7702
mp-14283,Sr2InF7,4.9452
mp-14288,Sr3P4,0.8855000000000004
mp-14328,Pr3GePO9,4.5689
mp-14333,TaAlO4,4.0663
mp-14340,Rb2Pd3Se4,0.9187
mp-14387,Tb3Al5O12,4.473000000000001
mp-16403,SnHgP14,1.1914999999999996
mp-16432,Sr3(BO3)2,4.3938
mp-16461,Gd2Si2O7,2.8751
mp-16557,SrAlF5,7.2457
mp-16590,Tb4Si2S3O7,2.6065
mp-16591,Tm4Si2S3O7,2.6506
mp-16605,Sr2TmTaO6,3.8822
mp-16608,Si3Os2,0.8552999999999997
mp-1666,Th2S5,1.7022000000000004
mp-16684,PrCuS2,1.0668000000000006
mp-16705,Pr2O3,3.6593
mp-1678,PuRh3,0.003600000000000492
mp-1848,Te2Ru,0.11129999999999997
mp-1853,Sr3P14,1.8254
mp-1858,HfO2,4.2272
mp-2173,P2O5,4.8374
mp-233,UO3,0.4657999999999998
mp-2511,PbF2,4.3823
mp-25305,Y2Ti2S2O5,0.7881
mp-27921,Ti2PCl13,2.3096
mp-10627,SrS,1.7902999999999998
mp-10653,SrTe,0.4752000000000001
mp-10662,K2CO3,3.2835
mp-10667,SrAgP,0.11359999999999992
mp-10671,Sr3(AlGe)2,0.043099999999999916
mp-10680,BaSe,1.2143000000000002
mp-10716,YbRh3C,0.07040000000000024
mp-10732,ThTaN3,0.07850000000000001
mp-1075,SmNi5,0.04010000000000069
mp-10777,RbCeSe2,0.09830000000000004
mp-10778,RbPrSe2,1.9029
mp-10779,RbNdSe2,1.8958
mp-10780,RbSmSe2,1.899
mp-10781,RbGdSe2,1.3089000000000002
mp-10783,RbHoSe2,1.962
mp-10784,RbErSe2,1.9816
mp-10785,RbLuSe2,2.0335
mp-10791,ErBO3,5.131399999999998
mp-10792,DyBO3,5.0107
mp-10795,TaTlS3,0.5987999999999998
mp-10798,HgSeO3,2.2784
mp-10802,RbAs,0.5850999999999997
mp-10804,NaYPO4F,5.4899
mp-10814,SrLiBO3,4.3664
mp-10821,RbC,3.5275
mp-10834,RbNd2CuS4,0.9387999999999996
mp-10835,RbSm2CuS4,0.9672
mp-10838,NaYb(PS3)2,1.696
mp-10918,Rb2PdC2,1.5802
mp-10919,Rb2PtC2,1.1362
mp-10925,Pr2Se2O,2.0603
mp-10927,SrC2(SN)2,3.7833
mp-10930,TbSF,1.2587000000000002
mp-10933,Nd2TeS2,1.5852000000000004
mp-10950,Sr2Cu(PO4)2,0.2216
mp-10953,Sc2CdS4,0.9581
mp-12350,SiO2,6.1956
mp-12355,Sr2YTaO6,3.845
mp-12368,SbS2NF6,2.6675
mp-12372,CaSO4,5.9558
mp-1239,Sb3Ir,0.05399999999999938
mp-12418,SrCaGe,0.4478
mp-12427,Sr2TaGaO6,4.0418
mp-1244,SrGe2,0.4211999999999998
mp-12444,SrCuSF,1.5103
mp-1245,Sr2N,0.036599999999999966
mp-1247,Sb2Ir,0.4870000000000001
mp-12516,NdZnSbO,0.8324999999999996
mp-12620,NdSeF,0.9158
mp-12621,NdTeF,0.4204000000000008
mp-12622,SrPdF4,1.3251
mp-12630,MgSeO4,2.869
mp-12725,NbAgO3,1.3296
mp-14399,LiAlSiO4,4.8483
mp-14411,K4GeO4,2.7710000000000004
mp-14424,Sr(AlS2)2,3.8928
mp-1443,Sn3F8,3.1589000000000005
mp-14430,Sr2YRuO6,0.18269999999999964
mp-14476,LiRhO2,1.3800000000000003
mp-14500,Sr(As3Pt2)2,0.1305000000000005
mp-14531,NaNb3O8,2.2455000000000003
mp-14532,NaTa3O8,2.68
mp-14550,TiCdO3,2.1261
mp-14551,Sr2CaUO6,2.2051000000000003
mp-14556,SmCd(BO2)5,4.4709
mp-14587,ZnP4,0.9662999999999996
mp-14591,LiSbS2,1.1843000000000004
mp-14600,CaAl2O4,4.3909
mp-14607,KSbO3,1.7858999999999998
mp-14613,Pr10Se19,0.3176999999999994
mp-14620,Tm2CdSe4,0.6581000000000001
mp-14628,ZnSnO3,1.3278
mp-14630,Y3Si3O10F,5.1402
mp-14635,Rb2VAgSe4,1.0795
mp-14638,Rb2LiGaF6,6.1124
mp-14650,Nd10Se19,0.29410000000000025
mp-14651,Zr2AgPdF11,0.5633
mp-14676,NdTa7O19,3.1661
mp-1468,P4S3,2.8693
mp-1469,P4S3,2.8816
mp-14761,TmAu2F9,1.9057
mp-14787,Tm2S3,2.5249
mp-14835,Nd4Si2S3O7,2.5813
mp-14836,Pr4Si2Se3O7,2.3921
mp-14837,Sm4Si2Se3O7,2.3907
mp-14854,Sr2LiIn(B2O5)2,3.7658
mp-14858,Rb4Tc6S13,1.0044999999999995
mp-14862,SrCu(Si2O5)2,0.8594999999999997
mp-14866,CsAlF4,6.9942
mp-14885,Rb2Cu2Si8O19,0.5316000000000003
mp-1492,CdTe,0.02510000000000012
mp-14926,Sr2ScF7,6.364999999999998
mp-14931,SrCuP2O7,0.7906
mp-14951,Rb3AlO3,2.6514
mp-14963,Pr3NbO7,2.6596
mp-14964,Pr3TaO7,3.4199
mp-1694,Yb2Ge,0.03819999999999979
mp-1705,Sb2O5,0.8138000000000005
mp-1875,TeF6,4.3688
mp-2068,RhF3,0.8625999999999999
mp-2075,Si3N4,3.3332999999999995
mp-2079,Rb2P3,0.7643999999999997
mp-21964,TlCu7S4,0.6768000000000001
mp-23403,SbIF5,0.5522
mp-236,SN,1.9849
mp-2576,Sr2Ge,0.37760000000000016
mp-2584,TbFe3,0.0034000000000000696
mp-2600,BaTe,0.7819000000000003
mp-2623,V4As3,0.00020000000000042206
mp-2632,TlF3,1.2591
mp-2646,Mg3Sb2,0.2172000000000001
mp-10966,Tb2Cu(GeO3)4,0.8603000000000001
mp-10985,RbCu3S2,0.4685000000000006
mp-10996,Yb(MgSb)2,0.6840000000000002
mp-11011,RbNdTe4,0.16490000000000027
mp-11012,Sr(BS2)2,2.9754
mp-11022,ScAgO2,2.1151
mp-11023,ScAuO2,1.7632999999999996
mp-11054,RbSn,0.7438000000000002
mp-11055,CsSn,0.7471999999999999
mp-1109,Sr5Al9,0.01100000000000012
mp-11110,YbAl3(BO3)4,0.02200000000000024
mp-11112,Tb(BO2)3,4.9842
mp-11152,SiSbPt,0.2099000000000002
mp-11170,KCeSiS4,0.0025000000000003912
mp-11178,SrCeN2,1.2207999999999997
mp-11183,Pr(BO2)3,5.3949
mp-11184,Nd3Sb4Pt7,0.002200000000000202
mp-1125,Li2S,3.8954
mp-11342,GaSe,1.2233
mp-11347,TbF3,7.7511
mp-12787,SiO2,5.6211
mp-12807,KAlO2,3.7538
mp-12843,YCuS2,1.7908
mp-1285,PtO2,0.6417999999999999
mp-12862,LuTaO4,4.0476
mp-12867,SrSnO3,1.5550000000000006
mp-12878,Sr2YSbO6,3.7004
mp-12910,GeS,0.5581
mp-12924,KLaSiS4,2.6881
mp-12929,SmAsO4,3.6892
mp-12931,SmTaO4,3.9732
mp-12932,TbTaO4,4.0492
mp-12933,TmTaO4,4.1068
mp-12953,TmAgTe2,0.6664000000000003
mp-12958,BaSiO3,3.0376999999999987
mp-12984,TbCuSe2,0.8279999999999994
mp-13003,CdGeO3,0.8428
mp-13039,Tm2C(NO)2,4.0299
mp-13042,NaSr3TaO6,3.8787
mp-13060,Sc2O3,3.39
mp-13096,Y3AlNi8,0.0376000000000003
mp-13097,NaZnAs,0.3635999999999999
mp-13119,CdO,0.015799999999999998
mp-13134,Ga2O3,1.1942
mp-13146,Ca3N2,1.4782999999999995
mp-13148,Ca3N2,1.3734999999999995
mp-13151,BN,4.7783
mp-15013,RbBS2,2.8271
mp-15016,Nd4Si2Se3O7,2.3918
mp-15046,Sb2(PSe3)3,1.4601000000000002
mp-1509,Sn2S3,0.7755000000000001
mp-15113,Na2Si3O7,4.6833
mp-15141,NaZr2ZnF11,5.7288
mp-15182,Rb2LiCo(CN)6,4.2833
mp-15201,Pr2Ti2O7,2.898
mp-15217,Rb2TaAgS4,1.862
mp-15219,Rb2VCuS4,1.2783
mp-15221,Rb2NbCuS4,2.0005
mp-15222,Rb2NbCuSe4,1.6771
mp-15257,Tb2Se3,0.3403999999999998
mp-15316,SrMgF4,6.2323
mp-15318,Rb2NaHoF6,6.5281
mp-15339,Sr3As4,0.6184000000000003
mp-15359,GdAl3(BO3)4,2.8509
mp-15380,Sb9Se4F39,1.9538
mp-15397,Ti7Al2O15,9.999999999976694e-05
mp-15416,Rb2GaAs2,0.8526000000000002
mp-15438,ZnP4O11,4.755800000000002
mp-15483,Zn3(AsO4)2,1.8965
mp-15519,NdZn(BO2)5,5.037800000000002
mp-15520,TbZn(BO2)5,5.0939
mp-15549,K2LiAlF6,7.217799999999999
mp-15556,Rb2As3,0.3968
mp-1716,Rh2O3,0.5594000000000001
mp-1726,KO3,0.6216999999999999
mp-1938,Al2O3,5.313199999999998
mp-1950,SrS2,1.2822
mp-2084,Si5Ir3,0.9666999999999994
mp-2095,Rb2Te3,0.6637
mp-2398,ScSn2,0.02890000000000015
mp-2650,P4S7,2.7617
mp-2697,SrO2,2.8495000000000004
mp-1136,Na3As,0.09410000000000007
mp-1140,NdCu5,0.005399999999999849
mp-1146,ThS2,1.0319000000000005
mp-13178,AlN,3.2676000000000007
mp-13189,SrLuCuS3,1.3435000000000006
mp-13194,PrSbO4,2.1983
mp-13195,NdSbO4,2.2255000000000003
mp-13196,SmSbO4,2.2709999999999995
mp-1323,AlF3,7.3085
mp-13275,NaSrP,1.2357
mp-13276,SrLiP,1.3430999999999995
mp-13282,Sm(ErSe2)3,0.7752999999999997
mp-13292,TbYb2PrS6,1.2724000000000002
mp-13312,ScTlS2,0.9338000000000006
mp-13313,ScTlSe2,0.6128
mp-13314,ScTlTe2,0.058100000000000485
mp-13336,RbSc5Te8,0.3273999999999999
mp-13383,ScAg(PSe3)2,1.6451
mp-13385,TmAg(PSe3)2,1.7753
mp-14680,Sr2Ga2S5,2.5153
mp-14716,Nd2Au5F21,1.7722
mp-15573,Tl3AsO4,2.5807
mp-15621,AlSb,0.02210000000000001
mp-15643,SrMgGe,0.026900000000000368
mp-15668,NaSe,0.4799
mp-1573,Sn2Pd,0.00969999999999871
mp-15736,Sr3AlO4F,4.0449
mp-15743,Sr2CeO4,2.2243000000000004
mp-15803,Y2MgSe4,1.3007
mp-1582,As2O3,4.0252
mp-15833,Zn4P6SN12,4.092599999999999
mp-15844,TaPO5,3.8264
mp-15900,Sr3Sc2Cu2S2O5,1.6930000000000005
mp-1595,Nb2O5,2.171
mp-15953,P2Rh,0.37049999999999983
mp-1599,BN,1.5764
mp-16025,Y2(SO4)3,5.6993
mp-16031,Sn3N4,0.23079999999999945
mp-16032,Pr2TeO2,1.6555999999999995
mp-16033,Sm2TeO2,1.4223999999999997
mp-16036,Tb2TeO2,1.1715
mp-1745,Sm2O3,3.7443
mp-1760,UF5,0.3502
mp-1771,NO2,2.6914
mp-1788,As2O5,1.4032
mp-1806,RbO3,0.8712
mp-1985,C3N4,3.1729000000000003
mp-20893,GeO2,0.9845000000000002
mp-2131,SrN6,3.7752
mp-2254,Al2O3,4.8274
mp-226,FeS2,0.4562000000000008
mp-2275,UF6,2.7932
mp-2402,NaSi,1.1326
mp-24079,Mg2PHO5,5.266400000000001
mp-2416,YF3,7.5337999999999985
mp-24297,SrP2(HO)4,5.4304000000000014
mp-24298,P2H4PbO4,3.9446
mp-2457,Tb2O3,3.9407
mp-2460,Er2O3,4.1066
mp-2462,PrCu5,0.05119999999999969
mp-2726,SrCu5,0.01909999999999989
mp-277,Zr3N4,0.9707999999999996
mp-27938,Tl6SI4,1.7794000000000003
mp-27941,AgClO3,2.3879
mp-28180,Sb4F15,3.6879
mp-28217,Tl2PS3,2.2407
mp-28271,Sn5BF13,4.1558
mp-28294,Sb11F43,3.5093
mp-2843,SnF2,3.275
mp-28642,Ba3AlF9,6.295800000000002
mp-28684,Sb7Se8F35,1.9007
mp-28840,Y4RuI5,0.12439999999999962
mp-29051,WS9Cl4,1.2564
mp-29063,ThZrF8,5.6773
mp-29423,TlFeBr4,1.0383
mp-29424,Sr4As3,0.5853000000000002
mp-3283,RbNbO3,3.3068
mp-32850,Tm2Se3,1.6557999999999995
mp-4198,Ag3PO4,0.1745000000000001
mp-4199,Na2S2O3,4.0606
mp-14722,NaSrAlF6,6.9766
mp-14817,PrP5O14,5.3923
mp-14892,Rb9Fe2Se7,0.4288000000000001
mp-14901,NaZnAsO4,2.7708
mp-14935,P3RhO9,1.808
mp-15078,SiO2,5.6346
mp-15125,Rb2CdSi5O12,3.8268
mp-15225,Nd2Si2O7,4.8256000000000006
mp-15239,Nd3Ga5O12,3.0611
mp-15382,TmP5O14,5.2284
mp-15577,Pr4Ga2O9,3.6092
mp-15590,Sr2Nb2O7,2.7520999999999995
mp-15750,TaAgP4O13,2.0967
mp-16001,Rb5Ti6AgSe27,0.5599000000000001
mp-19136,TbFe3(BO3)4,2.3623
mp-19207,Sr2CoWO6,1.7578000000000005
mp-19269,NdCrO3,2.3395
mp-19287,NaV(SiO3)2,2.0001999999999995
mp-19326,MnO2,1.0003
mp-19336,Nd2MnCoO6,1.0807000000000002
mp-20934,Pu2Si4Tc3,0.0008999999999996787
mp-20938,RbIn5S8,1.2599999999999998
mp-20940,TiCdO3,2.4627000000000003
mp-20944,Sr2PbO4,1.3966000000000005
mp-20988,Cs2LiCr(CN)6,1.832
mp-20991,BaPbO3,0.02659999999999973
mp-22628,CsNO3,3.0696
mp-22630,Sc2PbS4,1.6635
mp-22657,Pu(SiRh)2,0.002400000000001512
mp-22671,Pr7O12,0.029100000000000126
mp-22688,CuSeO3,0.2102000000000004
mp-22689,ZrSnPd,0.028599999999999962
mp-24312,Sr(H9O5)2,4.9945
mp-24313,ZnH6(CO3)2,4.4692
mp-24333,UH12(ClO2)3,0.5445000000000002
mp-24335,YH5(SeO4)2,4.4593
mp-24338,Sr5As3H,0.6763999999999997
mp-24345,ZnH12(SO6)2,5.0235
mp-24363,PH10N2O4F,4.9132
mp-24391,MgB3H15O13,5.0784
mp-24398,AlP(H2O3)2,5.408099999999999
mp-24399,MgH10SO9,4.9785
mp-24409,PH4I,3.6789
mp-24411,K2LiAlH6,2.4373
mp-24419,SrLiH3,1.8195
mp-24423,SrHBr,3.8289
mp-24445,Nd2H16S3O20,5.4556
mp-24456,SrH2N2O5,2.2801
mp-24478,PuH8(SO6)2,0.01639999999999997
mp-24479,SrH2Br2O7,4.0296
mp-24488,NaZn2H3(SO4)2,4.3334
mp-24502,ZnH2(SO4)2,4.6505
mp-24508,ZrH3NF4,4.7782
mp-24517,Rb2CaH4,3.3032
mp-24656,YH3(SO4)3,5.287999999999999
mp-27952,SNCl,2.68
mp-27975,NdBr3,2.9211
mp-27976,SmBr3,2.9285
mp-27980,U(OF)2,2.0451
mp-27984,PrClO,4.698500000000001
mp-27985,YClO,5.0908
mp-27986,Np(OF)2,0.03180000000000005
mp-28002,Rb3Mn2Br7,1.1275
mp-28011,Tl2Sn2S3,0.8384999999999998
mp-28012,ReNF6,2.3176
mp-28021,Sr5(Br4Cl)2,4.443899999999998
mp-28025,Sn2SO5,3.5104
mp-28026,TcP4,0.9091000000000004
mp-28029,TcP3,0.4488000000000003
mp-28038,NbTeBr3,0.5913000000000002
mp-28043,Tl3AgI5,1.0507
mp-28049,BaBrCl,4.9288
mp-28057,Ba(BiS2)2,0.9465999999999996
mp-28062,Sb2F7,3.8056
mp-28064,SbS8Cl3,2.8448
mp-28065,ThNCl,2.4974000000000007
mp-28066,ThBrN,2.6393
mp-28067,ThIN,2.699
mp-28084,Rb2PdBr6,0.619
mp-28087,Pb4IF7,2.9146
mp-29426,Y5C2I9,0.6358999999999999
mp-29427,Ta(TeBr3)2,1.1942
mp-29428,Ta(TeCl3)2,1.1619
mp-29432,NaScCl4,3.8115
mp-29437,Zn4As2O9,1.6613
mp-29447,Bi3BrO4,2.3158
mp-29449,Rb4Cu5Cl9,1.7887
mp-29456,Rb2IN3,3.9553
mp-29458,Rb3Mo2Cl9,0.9456
mp-29459,Rb3Mo2Br9,0.9236
mp-29460,Tl3PdCl5,1.633
mp-29465,TaCl4,1.2222
mp-29467,P4(SeO2)3,3.4484000000000004
mp-29468,Rb6Cl4O,1.6658000000000002
mp-29469,Pd(Se3Cl)2,1.28
mp-29489,P4SeO7,3.5458
mp-29492,S2I2O11,2.6242
mp-29496,Pd(SeBr3)2,1.3982
mp-29498,WBr2,2.4687
mp-29499,Re3Te8Cl3,0.8757000000000006
mp-29501,Rb3AsSe16,0.9103
mp-29509,Zn(AsO2)2,3.5391000000000004
mp-29514,PHF4,7.5482
mp-29521,RbBiO2,2.2042
mp-30810,Th2Ni17,0.01909999999999989
mp-32891,Y2S3,1.9018999999999997
mp-32906,La2S3,1.9201
mp-32933,Tm2S3,2.0032000000000005
mp-33046,TiN,0.002699999999999925
mp-33107,SF4,1.5276
mp-3311,SrUO4,2.0862
mp-3316,BaCeO3,2.2112
mp-3317,SmRhO3,0.7336
mp-3324,Nb2SnO6,1.7399
mp-33297,Mg2TiO4,2.5837000000000003
mp-4200,ScPO4,4.5189
mp-42036,Nd6Al7Si5N3O25,3.3797999999999995
mp-42298,Na6Al4Fe(Si4O13)2,3.0250000000000004
mp-4240,RbCeTe2,0.1255999999999995
mp-42458,SrAl3P2(HO2)7,4.9878
mp-42508,Na4BeAlSi4ClO12,4.276599999999998
mp-4252,SnPS3,1.821
mp-4255,Ba(CuS)2,0.5059999999999993
mp-42599,NaYTiNbO6F,2.718700000000001
mp-4266,KAsF6,4.9494
mp-4274,SrTeO4,2.2328
mp-42897,NaPrTiNbO6F,2.8110000000000004
mp-430,TiO2,2.2393
mp-43134,NaNdTiNbO6F,2.7863
mp-4324,Tm2CdS4,1.1768
mp-4325,Zr(SO4)2,3.5633
mp-4340,TbPO4,5.8675
mp-4344,HoTaO4,4.0508000000000015
mp-16061,Sr6Sb6S17,1.7409
mp-16160,Sm4Au2O9,2.0219
mp-16194,Rb2SiO3,3.4349
mp-16402,Tb4(SiS4)3,2.3656
mp-16457,Tl2B4O7,3.3162000000000003
mp-16691,SrLi2Ti6O14,2.8389000000000006
mp-16795,CaAlF5,7.1355
mp-16796,Sr2GdRuO6,0.34609999999999985
mp-16800,Sc2(SO4)3,4.3566
mp-16809,Ho2Si2O7,4.6160000000000005
mp-16819,ZnTeO3,3.4996
mp-16834,Zn3(AsO4)2,2.1388000000000003
mp-16837,Nb3AgO8,1.5603999999999996
mp-16863,Rb3PS4,2.7368
mp-16872,RbLi2Ga2(BO3)3,3.6655
mp-16884,RbEr2Cu3Se5,1.152
mp-16897,Sr2Sb3,0.13230000000000075
mp-16903,SrSbF5,4.7617
mp-19408,LiV2O5,1.1867
mp-19538,SrFe12O19,1.1190000000000002
mp-19587,UCrO4,0.3386999999999993
mp-19660,Sr2V2O7,3.452
mp-21037,U2FeS5,0.0005000000000006112
mp-21043,RbPbF3,3.0445
mp-21103,UPdSe3,0.007100000000000328
mp-21133,Np(MnGe)2,0.001000000000000334
mp-21166,SrCaPb,0.27680000000000016
mp-22720,RbSr2Nb3O10,1.4646
mp-22737,Sb8(PbS5)3,1.597
mp-22747,Pb(CO2)2,2.7868000000000004
mp-22750,P2Pb3O8,3.3518
mp-22761,CeCuSn,0.0008999999999996787
mp-22768,Nd2Ge2Ir,0.0018000000000002456
mp-22821,SnP2PbO8,3.7068
mp-24547,ZnH2(SeO4)2,2.7238
mp-24559,Rb2CuH4(Cl2O)2,0.7801
mp-24574,NdH5(SeO4)2,4.4543
mp-24606,Rb2MgH8(CO5)2,4.5352999999999986
mp-24638,Mg3P2(HO)16,4.9866
mp-24653,TiH8N2F5,0.22310000000000008
mp-24657,ZnBP2H4NO8,4.8340000000000005
mp-24662,Rb4Mg3H10,3.4271
mp-24664,ZnH8C2N4(ClO)2,4.7564
mp-24705,SrCaB5H2ClO10,4.962199999999998
mp-24708,ZnH8SO8,4.6838
mp-24714,ZnH4(CO3)2,3.1831
mp-24729,RbGa2P2H5O11,4.1797
mp-24741,ScH3NCl3,3.8496
mp-24759,ZnH20Se2(NO7)2,3.637
mp-24761,RbGaBP2HO9,4.6625999999999985
mp-24796,Rb3B12H12Br,4.7451
mp-24798,Rb3B12H12Cl,4.9513