task_id,pretty_formula,band_gap
mp-768459,Ti2(SO4)3,0.0
mp-768512,Cu2(SO4)3,0.0
mp-768734,Sr2CaI6,3.5507999999999997
mp-768871,Bi6B10O21,1.1879999999999997
mp-768954,Ba2YCl7,4.7082999999999995
mp-769069,Na2Li4Ti3Al(PO4)6,0.0
mp-771301,Li24Ti5Cr7O36,1.1905999999999999
mp-771827,Ca3Pb3I14,0.0
mp-771877,Ca3Pb3I14,0.0
mp-772524,LiTi2(PO4)3,2.7607999999999997
mp-774410,Li8Mn3Fe5(BO3)8,0.0
mp-776110,SiSnO3,2.5265999999999993
mp-776212,Hf2N2O,2.0725999999999996
mp-776213,Hf2N2O,2.0317999999999996
mp-776225,Hf2N2O,1.9416000000000002
mp-776260,Zr2N2O,1.6503999999999999
mp-776334,Ti2N2O,0.9614000000000003
mp-776361,Ti2N2O,0.9390000000000001
mp-776378,LiCuBO3,0.0
mp-776402,B10H13,3.206
mp-776442,Ba2YI7,2.8272999999999997
mp-776664,LiV3OF11,1.2935999999999999
mp-776667,Cr3(FeO6)2,1.8235999999999999
mp-780936,Li5V6O5F19,0.24930000000000002
mp-781074,LiMn2(BO3)2,0.48550000000000004
mp-781111,Li8Mn7Nb(PO4)12,0.18379999999999996
mp-781113,Li8Fe7Ni(PO4)12,0.0
mp-781596,LiFeOF2,1.7247999999999999
mp-781625,BaOsO3,0.0
mp-782640,K8Li3Cr4O16,0.0
mp-784631,CrNi2,0.0
mp-849549,Mn12O5F19,0.0
mp-849583,YNb2NO5,2.2861000000000002
mp-1008506,BaGaSiH,0.47920000000000007
mp-1013584,Ba3BiSb,0.0
mp-1013712,Ba3SbP,0.0
mp-1013713,Ba3BiP,0.0
mp-1013714,Ba3SbAs,0.0
mp-1013716,Ba3BiAs,0.0
mp-1013736,Ba3Bi2,0.0
mp-1014219,HfZn,0.0
mp-1014230,TiZn,0.0
mp-1018690,ErZnGa,0.0
mp-1018796,Mg2Si,0.0
mp-1018823,NiPRh,0.0
mp-1020947,Y(PO3)3,5.8610999999999995
mp-1064119,KN,0.0
mp-1068250,Ca(FeSi)2,0.0
mp-19378,CrAgO2,1.6634000000000007
mp-20620,Ba2NbInO6,3.3486000000000002
mp-20781,RbHg(NO2)3,0.0
mp-2614,HfAl3,0.0
mp-27508,Li6Br3N,2.0856999999999997
mp-37307,Na(WO3)2,0.0023999999999997357
mp-541934,Al(FeO2)2,0.0
mp-558507,TbMn2BiO6,0.0
mp-560671,Rb2NaVF6,0.0
mp-569931,Pr(NiP)2,0.0
mp-569974,Nd(NiP)2,0.0
mp-600023,SiO2,5.488
mp-600351,NiH12C4(N2O3)2,2.1498999999999997
mp-607525,Ba11(Cd4Bi7)2,0.0
mp-616228,Te4WCl6,0.0
mp-619651,Cs3AlP2,0.9831000000000003
mp-620471,Cs3Te22,0.0
mp-621592,YPbAu,0.0
mp-622262,Te6MoBr3,1.0895000000000001
mp-6223,DyNi2B2C,0.0
mp-622980,MnTePd,0.0
mp-623135,Bi3(TeCl5)2,1.3882999999999999
mp-623646,TiNiSn,0.0
mp-624474,Ru(SCl3)4,0.10749999999999998
mp-624739,ScIr3C,0.0
mp-629015,BN,3.9688999999999997
mp-629397,FeNiN,0.0
mp-631254,KMnRu,0.0
mp-631267,TaFeSb,0.0
mp-631269,LiIrRh,0.0
mp-631270,ZnFePb,0.0
mp-631274,KFeP,0.0
mp-631288,LaGeOs,0.0
mp-631293,HgP2Se,0.0
mp-631294,HfMoSe,0.0
mp-631296,KHfNi,0.0
mp-631299,NbCrCo,0.0
mp-631301,HgPRh,0.0
mp-631302,ScVFe,0.0
mp-631303,InReGe,0.0
mp-631309,LiHg2Os,0.0
mp-631310,CoReGe2,0.0
mp-631311,IrOsW,0.0
mp-631314,KTaPt,0.0
mp-631319,LiTiRe,0.0
mp-631320,TcIrOs,0.0
mp-631322,KSnOs,0.0
mp-631335,MgTaZn,0.0
mp-631337,NaTaNi,0.0
mp-631342,MnTcPd,0.0
mp-631344,NaOsSe2,0.0
mp-631349,ZnTcMo,0.0
mp-631352,NbSnRu,0.0
mp-631353,MnRePt,0.0
mp-631354,ReOsRu,0.0
mp-631364,TaOsPb,0.0
mp-631365,TeRuPb,0.0
mp-631366,TcSnSe,0.0
mp-631371,TlCuIr,0.0
mp-631373,TiVW,0.0
mp-631375,ReSn2Se,0.0
mp-631379,ZnCuMo,0.0
mp-631381,TeRuSe,0.0
mp-631382,YMgCu,0.0
mp-631383,MnCrRe,0.0
mp-631387,SnRuW,0.0
mp-631392,SrHfRe2,0.0
mp-631395,CaTaTc,0.0
mp-631396,KFeTc2,0.0
mp-631403,CdPOs2,0.0
mp-631404,CrIrRu,0.0
mp-631405,ZrTcCl,0.0
mp-631410,CdNiP,0.0
mp-631413,Re2PCl,0.0
mp-631421,CrGaTe,0.0
mp-631422,CuSiBr,0.0
mp-631427,CuIrBr,0.0
mp-631428,TlCoW,0.0
mp-631429,ZrCrFe,0.0
mp-631430,LaInW,0.0
mp-631435,ReRuBr,0.0
mp-631436,VOsCl,0.0
mp-631440,BiTeIr,0.0
mp-631472,InFeAs,0.0
mp-631478,IrPbBr,0.0
mp-631482,BiMoRh,0.0
mp-631484,TaTiAl,0.0
mp-631492,BaScIr,0.0
mp-631494,SrCrPd2,0.0
mp-631502,CrNi2Hg,0.0
mp-631504,BaSiTc2,0.0
mp-631506,SrZrCo,0.0
mp-631511,BiBTe,0.0
mp-631514,AlB2Pb,0.0
mp-631518,ZrBTe,0.0
mp-631521,BaHfMo,0.0
mp-631523,TcNiW,0.0
mp-631526,SiBPb,0.0
mp-631531,NbBW,0.0
mp-631533,PPbW,0.0
mp-631538,NiBiB,0.0
mp-631539,BiBCl,0.0
mp-631540,NiBTe,0.0
mp-631542,BaZrNi,0.0
mp-631543,AlInB,0.0
mp-631544,BaSiB,0.0
mp-631549,HfGeB2,0.0
mp-631551,MnAlTc,0.0
mp-631555,MnVNi,0.0
mp-631558,Hf2BiB,0.0
mp-631560,SrMnRe2,0.0
mp-631561,ZrAgMo,0.0
mp-631566,TaAuBr,0.0
mp-631568,AlAgB,0.0
mp-631570,BaTaB,0.0
mp-631572,GaReAs,0.0
mp-631575,TiCrAg,0.0
mp-631580,BPd2Br,0.0
mp-631582,AlTc2Pb,0.0
mp-631637,Mg2PbW,0.0
mp-631696,Ca2CoW,0.0
mp-631703,BaRe2Sn,0.0
mp-631754,ReSnGe,0.0
mp-631895,FePbW2,0.0
mp-631946,SnOs2Ru,0.0
mp-637982,As5Pb3S10,0.48800000000000043
mp-640389,Cs2Th(PS3)3,2.2752999999999997
mp-6430,Ba2YReO6,0.0
mp-650336,PCN2Cl3,3.4966999999999997
mp-651005,In3Bi7(Pb2S9)2,0.0
mp-662563,CsFe2Se3,0.0
mp-669462,TeS2N3Cl5,0.43779999999999997
mp-672315,PC2S2N3,3.3084000000000002
mp-676339,BaTa2O6,3.6189999999999998
mp-676687,RbAg4I5,1.1359000000000001
mp-676813,RbAg4I5,1.7041999999999997
mp-676920,K7(Si2Te5)4,0.0
mp-677223,NaCaAl3(SiO4)3,3.4730999999999996
mp-677348,Nd8AlSi3(NO5)3,1.0276000000000005
mp-677416,Na5Mg5In3(SO4)12,3.6949999999999994
mp-677636,Sr22Nb10O47,2.3651999999999997
mp-679930,Cu3P15I2,1.0110000000000001
mp-679967,Nb3Se10Br3,1.2044000000000001
mp-680167,LiMo6Cl13,2.3579999999999997
mp-680183,Te5As2Br4O5F26,2.1235999999999997
mp-680232,K2AgC3(SN)3,3.206
mp-680395,Li3As7,1.3268999999999997
mp-680400,K3Ta2S11,1.6764999999999999
mp-680410,K3Nb2S11,1.4262000000000001
mp-680432,Sr10Al6O19,3.6919000000000004
mp-680472,NaMo6Br13,1.9979000000000002
mp-683966,GaP3(NCl3)3,3.9061000000000003
mp-684081,AsS,0.0
mp-685300,Ti4P8S29,1.0703000000000003
mp-685403,Tl3(V3S4)8,0.0
mp-685779,Sn5(Mo3S4)12,0.0
mp-686239,Sr5Li25La7Nb8O48,3.2108999999999996
mp-686541,Al2Cd(Si5O12)2,2.3773999999999997
mp-693753,BaNa5Ca7P6(O8F)3,4.816800000000001
mp-694852,K5RbZn4Sn5S17,1.612
mp-694958,Na2Li5Al7Si29O72,3.2399999999999998
mp-695209,KNb4AsO13,2.4356999999999998
mp-695254,Ca10La6Mg3Ti13O48,1.9165999999999999
mp-705034,CrPb5O8,1.8799000000000001
mp-705134,In2(MoO4)3,3.7072000000000003
mp-705472,AsS,0.9440000000000001
mp-706291,Ca2B8H2O15,5.576099999999999
mp-706521,K2PH3O5,4.1030999999999995
mp-706550,Mg3Mn3(BO5)2,0.0
mp-706815,KBa7Al15Si17O64,4.152299999999999
mp-707490,K8TeP8(H5O16)2,0.592
mp-709031,Al4P4H11C3NO18,1.029
mp-715262,FeO,0.0
mp-720215,K7H12Pt4C16(N8O3)2,0.0
mp-720255,Sr20P12Cl(O16F)3,5.1640999999999995
mp-720849,Na2H6PtC4N4O3,2.4515000000000002
mp-720971,Ca12Al11Si3Cl5O32,4.3306000000000004
mp-721252,Li10Sn(PSe6)2,1.3659000000000001
mp-722344,KCa4B22H18ClO46,5.5100999999999996
mp-722502,Li3P11(H3N)17,1.9667999999999999
mp-722774,Ba3As2H14S8O7,1.9766000000000001
mp-723419,Sb2S19F12,1.9711999999999998
mp-734944,CoH2(SN)4,0.0
mp-736386,VH24C4N4Cl7,0.14590000000000003
mp-738675,CuH9C4S4N,0.006300000000000083
mp-740758,H2Os4Pt(CO)15,1.8919000000000001
mp-752682,Ba2Sr7I18,3.419
mp-755877,BaNdO3,0.0
mp-758371,YbAlO3,0.0
mp-758433,AgHg,0.0
mp-758651,Li3Sb3(PO4)4,3.6363000000000003
mp-759607,LiSb4P7O24,3.3890000000000002
mp-759715,KLi2Sb(PO4)2,3.4313999999999996
mp-759786,Na2Ti7O15,2.8839000000000006
mp-761454,Sn(WO3)3,0.0
mp-762621,LiFe(PO3)3,3.7582000000000004
mp-765543,Sr3(RhO2)16,0.0
mp-765584,Sb(PO3)4,0.11949999999999994
mp-766249,Bi24Br10O31,1.4649000000000005
mp-767208,Sb17S27,0.0
mp-767365,SnP4O11,3.9191000000000003
mp-767899,Li2SiNiO4,3.3891999999999998
mp-769926,EuVO3,0.0
mp-770023,Ag2Hg3,0.0
mp-771099,Li3Mn4SnO8,0.0
mp-771175,Li2MnBO4,0.9098999999999999
mp-771206,Li4FeCo5O12,0.28100000000000014
mp-773980,Bi3(TeCl5)2,1.1743000000000001
mp-774100,Dy29Y3O48,3.9604999999999997
mp-776966,Sn2N2O,0.10289999999999999
mp-777013,LiNi(SO4)2,0.0
mp-777028,LiCo2(PO4)3,0.0
mp-777292,Ba3Y2Br12,3.7767999999999997
mp-8219,Zr(CuP)2,0.0
mp-849682,Li2MnVP2(HO5)2,0.0
mp-849718,Na2Ti4O9,2.4330999999999996
mp-850274,H2,8.743400000000001
mp-851021,Mn7P12WO48,0.0
mp-982370,Na,0.0
mp-998430,CsInI3,1.4545000000000001
mp-1001790,LiO3,0.17820000000000003
mp-10065,UFe3B2,0.0
mp-1008376,CeH3,0.0
mp-1008489,CdN,0.0
mp-1008617,YbAg2,0.0
mp-1008630,WC,0.0
mp-1009133,MnCo,0.0
mp-1009539,OsC,0.0
mp-1013528,Ba3N2,0.0
mp-1013530,Sr3BiP,0.0
mp-1013531,Sr3BiN,0.0
mp-1013642,Ca3AsP,0.19430000000000014
mp-1013643,Sr3BiP,0.0
mp-1013691,Ba3BiP,0.0
mp-1014366,CrN2,0.0
mp-1018104,Zr2Cd,0.0
mp-1018128,ScAg2,0.0
mp-1018140,MgNi,0.0
mp-10200,ZrBeSi,0.0
mp-1025143,DyB2Rh3,0.0
mp-1029677,In2(CN2)3,2.1510000000000002
mp-1029737,Ca4VN4,0.12380000000000013
mp-1029739,Li6FeN4,0.0
mp-10356,Ho3InC,0.0
mp-1038818,MgAl,0.0
mp-1038873,Ce2Mg,0.0
mp-1038915,CaZn,0.0
mp-1038961,CaMg,0.0
mp-1038991,CaMg2,0.0
mp-1039026,Mg2Cd,0.0
mp-1039033,CaMg3,0.0
mp-1039175,MgCd2,0.0
mp-1039192,MgAl2,0.0
mp-1039199,CaMg2,0.0
mp-1039229,Ca3Zn,0.0
mp-1039230,Ca3Mg,0.0
mp-1039249,MgCd3,0.0
mp-1039293,Mg3Cd,0.0
mp-1039383,CaMg3,0.0
mp-1039434,Mg5Cd,0.0
mp-1039470,Ce3Mg,0.0
mp-1063224,HoHg2,0.0
mp-1063280,LaHg2,0.0
mp-1063988,S,0.0
mp-1065309,ZrAl3,0.0
mp-10654,Te,0.0
mp-1065811,SnO,0.0
mp-1066856,AgO,0.0
mp-10683,Ca,0.0
mp-1069079,FeBiO3,1.3463000000000003
mp-1069755,Li2CaN2,0.0
mp-1070152,Ca(CoSi)2,0.0
mp-1070275,Al3Tc2,0.0
mp-1070557,Zr2H2Pd,0.0
mp-1070837,TbMgCo4,0.0
mp-1073665,MgSi2,0.0
mp-1077270,GdB2Ir3,0.0
mp-1077776,ScB2Ir3,0.0
mp-1078600,TmAgTe2,0.9386999999999999
mp-1078758,Sr2NiRuO6,0.0
mp-1078766,GaFe3,0.0
mp-1079048,V3PN,0.0
mp-1079249,TbH3,0.0
mp-1079494,ReC,0.0
mp-1079529,NaTeO6,0.0
mp-1079863,TiCo3,0.0
mp-1080536,Pt(NF3)2,0.0
mp-1084774,BaNdCo2O5,0.0
mp-1084796,CaZn3Se4,1.3082000000000003
mp-1087545,Zn3CrTe4,0.0
mp-10892,MnAlPt,0.0
mp-10895,Mn2AlV,0.0
mp-10897,PrAl2Ni3,0.0
mp-1094212,MgSn2,0.0
mp-1094358,Mg3Ti,0.0
mp-1094603,LiMg3,0.0
mp-1094837,Ce2Mg,0.0
mp-1095353,IrO2,0.0
mp-1095499,CsAuCl4,1.8317999999999999
mp-1095726,Nb2CuRe,0.0
mp-1096994,HfN,0.0
mp-1099088,KMg14Co,0.0
mp-1099096,CeMg14Cd,0.0
mp-1099257,KMg3O4,0.0
mp-1099279,SrMg6Fe,0.0
mp-1099302,Mg6VW,0.0
mp-1099319,RbMg6Ni,0.0
mp-1099340,NaMg6Nb,0.0
mp-1099904,Ba2Mn2O5,0.0
mp-1100166,YMg3,0.0
mp-1100411,CaCdSn,0.0
mp-1100773,Y3Cd,0.0
mp-1102116,UAs2,0.0
mp-1102354,ThTc2,0.0
mp-1102508,DyOs2,0.0
mp-1102874,Ca3(ClO3)2,0.0
mp-1104014,Mn2ZnTe4,0.0
mp-1105431,Mn7PbO12,0.0
mp-1111888,Na3NbF6,0.0
mp-1111947,Rb2HgSbF6,0.0
mp-1112961,CsInCl3,1.5975000000000001
mp-1113393,Cs2SbAuBr6,0.0
mp-1120769,RuPt,0.0
mp-1120783,AlC,0.0
mp-11317,CeFe5,0.0
mp-11360,ScGaCu2,0.0
mp-11473,TlHg,0.0
mp-11564,TmRh,0.0
mp-1179,DyNi5,0.0
mp-1187,ThIr2,0.0
mp-12076,Tm(FeB)2,0.0
mp-12565,MnAu4,0.0
mp-12778,VOs,0.0
mp-12894,Y2SO2,2.9934999999999996
mp-13155,Hf2Ag,0.0
mp-13464,Ca(FeSb3)4,0.0
mp-13938,Sr2DyReO6,0.0
mp-1449,Pr3S4,0.0
mp-16107,Rb3P6N11,3.9206000000000003
mp-1675,Ho3Ge4,0.0
mp-18695,Fe15Co,0.0
mp-19072,Si(NiO2)2,3.6153000000000004
mp-19851,KInTe2,0.9868999999999999
mp-20229,Sm3InC,0.0
mp-2025,HfBe5,0.0
mp-20277,RbEuO2,0.0
mp-20318,Mn2B,0.0
mp-2045,Tb4Sb3,0.0
mp-20457,InP,0.0
mp-2049,ZrMo2,0.0
mp-20684,Pr3AlN,0.036799999999999944
mp-20906,HoCoC,0.0
mp-20971,SnPt3,0.0
mp-21064,EuNi2B2C,0.0
mp-21092,InNi2,0.0
mp-21211,InFeCo2,0.0
mp-21385,In3Ni2,0.0
mp-21963,YTl5Cu2(NO2)12,0.0
mp-22004,Yb3TlC,0.0
mp-22158,TbCoC,0.0
mp-22279,Ba2EuNbO6,0.0
mp-22292,EuCuSb,0.0
mp-22441,Ba2MgReO6,0.0
mp-22555,RhS2,0.0
mp-22762,CoN3,0.0
mp-23158,He,17.6476
mp-24051,ErHCl,0.0
mp-24154,NbH2,0.0
mp-24262,KP(HO2)2,5.3629999999999995
mp-24696,MgSb2(H4O3)6,3.2826999999999997
mp-2524,NdGa2,0.0
mp-2532,PrTe,0.0
mp-25499,CrO2,0.0
mp-25592,LiNiO2,0.0
mp-2566,PuSb,0.0
mp-26311,Li5Cu(PO4)2,1.9666000000000001
mp-27064,LiCuPO4,0.0
mp-27230,As2SO6,4.407900000000001
mp-27505,Fe3Sn2,0.0
mp-27760,PrSi2,0.0
mp-28116,TiCl2,0.0
mp-2880,LuB2Os3,0.0
mp-29721,B3H5,3.8726000000000003
mp-30383,Hf2Au,0.0
mp-30469,TlBi2,0.0
mp-30555,TaGaCo2,0.0
mp-30599,Ti2Cu3,0.0
mp-314,Th3Ge2,0.0
mp-32306,Ba2ReNiO6,0.0
mp-32887,HfTe2,0.0
mp-32927,Tb2O3,0.0
mp-3667,P2S2O3,3.974
mp-391,HoAl2,0.0
mp-41,Zr,0.0
mp-426,CoSe,0.0
mp-4322,Pr(CoB)2,0.0
mp-4595,VFe2Si,0.0
mp-4826,CaCuO2,0.0
mp-510324,Ce3(SiNi3)2,0.0
mp-541373,KTa3CuO9,0.0
mp-542468,NdNiO2,0.15689999999999937
mp-5447,Sm3OsO7,0.0
mp-5538,YSnPd2,0.0
mp-556242,YF3,5.617299999999999
mp-560641,Ba12Cl5F19,5.980499999999999
mp-567580,PaC,0.0
mp-567826,Sr,0.0
mp-567925,MoC,0.0
mp-568430,BaRh2,0.0
mp-568914,K2WCl6,0.0
mp-569597,Np(FeSi)2,0.0
mp-569933,HfCuP,0.0
mp-570044,NbI4,0.47799999999999976
mp-570179,TbAu2,0.0
mp-570591,CsHgCl3,0.0
mp-570598,SrSi7N10,3.9086999999999996
mp-570632,ScBi,0.0
mp-578601,NaNbO2,0.0
mp-582799,EuAl4,0.0
mp-5939,PrB2Ru3,0.0
mp-607450,In3Ru,0.20789999999999953
mp-623532,Eu,0.0
mp-625112,H8PtO6,1.5662000000000003
mp-631633,LaCoTc2,0.0
mp-632401,B,0.0
mp-634,HgS,1.7067999999999999
mp-635327,NaY2In,0.0
mp-636287,Eu3(GaNi)4,0.0
mp-637179,Ca3SnN,0.0
mp-6372,K2Be3Zn2F12,5.675800000000001
mp-639150,BaIn4Ir,0.0
mp-640079,Mn3Au,0.0
mp-641595,Fe21(WC3)2,0.0
mp-644500,Zn7Mo,0.0
mp-649084,Sr2B8Ru7,0.0
mp-652425,LiFe6Ge5,0.0
mp-654199,Ta8NiSe8,0.0
mp-657176,YbBeF4,6.546200000000001
mp-669699,Nb5Ni,0.0
mp-670,NbCo2,0.0
mp-673247,Y2O3,0.0
mp-676416,V2CN,0.0
mp-686765,YTi2CdO6F,1.3491999999999997
mp-696744,PH2NO4,0.0
mp-71,Yb,0.0
mp-7149,Na2LiN,0.0
mp-714960,VO2,0.37329999999999997
mp-725,RhO2,0.0
mp-7396,Li3Tl,0.0
mp-753195,Li2WS4,1.9870999999999999
mp-754369,Na4MgO3,1.4967000000000001
mp-754375,NaTi2O3,0.0
mp-755461,Dy3TaO7,3.3973999999999998
mp-756084,BaNa4O3,1.5876000000000001
mp-757094,La2HfO5,3.7213000000000003
mp-760506,PNO,3.9940999999999995
mp-761510,Mg2Co7O12,0.0
mp-762,PtS2,1.5425999999999997
mp-764009,Mn6O7F5,0.0
mp-764623,Mn6O5F7,0.0
mp-769814,Li3Mn4CuO8,0.0
mp-771401,Li3Mn4VO8,0.0
mp-774248,Li4Ni3Sb5O16,0.0
mp-774886,Li4Nb3Cu3(TeO8)2,0.0
mp-777474,LiFeF4,3.226
mp-778314,LiVF4,0.0
mp-778644,Fe6O7F5,0.0
mp-780432,La3Al5O12,3.7947999999999995
mp-7961,Sr3SnO,0.0
mp-8125,LuCuSi,0.0
mp-861501,AgHgPd2,0.0
mp-861639,Ti2CoIr,0.0
mp-861735,AcMgTl2,0.0
mp-861882,LiGeIr2,0.0
mp-862290,LiFeRh2,0.0
mp-862321,LiAsPd2,0.0
mp-862546,Sc2AlRu,0.0
mp-862847,PaB3,0.0
mp-862885,CaPmRh2,0.0
mp-862926,LiPmAu2,0.0
mp-8633,Cr,0.0
mp-863716,Pm2IrPd,0.0
mp-863734,ErPaTc2,0.0
mp-863881,Li2MnP3O10,0.0
mp-8642,Re,0.0
mp-864762,LiMg2Zn,0.0
mp-864926,HfPaTc2,0.0
mp-864983,MnVRu2,0.0
mp-865030,HfScRu2,0.0
mp-865118,NaPrAu2,0.0
mp-865152,MgAlPd2,0.0
mp-865429,YbYRh2,0.0
mp-865518,YSnRh2,0.0
mp-865641,Y2NiRu,0.0
mp-865801,LuPaTc2,0.0
mp-866141,TiFe2Si,0.40249999999999986
mp-866206,Yb2AgRh,0.0
mp-866824,Ca2SnS4,1.2939000000000003
mp-867568,CsTi6O12,0.0
mp-867912,Ba2SnHg,0.049799999999999844
mp-9615,LiTiS2,0.0
mp-961698,LiZnP,1.2970999999999995
mp-971769,Tm,0.0
mp-971779,ZnRh3,0.0
mp-972309,Ta2BN3,0.0
mp-972326,TcPt3,0.0
mp-972633,SmErRu2,0.0
mp-974616,Pt3Rh,0.0
mp-974739,Rb3Tl,0.0
mp-974850,Rb3Nd,0.0
mp-975904,Li3Cd,0.0
mp-975906,LiAl3,0.0
mp-975912,Mo3H,0.0
mp-976263,Li3Nb,0.0
mp-976281,Li3Pd,0.0
mp-976414,Li3Zn,0.0
mp-976422,Hf3C,0.0
mp-976930,Ni3As,0.0
mp-977387,TbAgHg2,0.0
mp-977586,MgSc2In,0.0
mp-978260,Mg2Bi,0.0
mp-9816,GeF4,5.500500000000001
mp-984612,Be3Ru,0.0
mp-985581,SmFe12,0.0
mp-995201,Ti5Si3C,0.0
mp-996,OsO2,0.0
mp-998358,MgAgF3,2.1127000000000002
mp-999259,RuC,0.0
mvc-10952,MoO2,0.0
mvc-10954,CoO2,0.0
mvc-10966,FeO2,0.0
mvc-12155,Ba3Y4(NiO5)3,0.0
mvc-12189,Ca(FeO2)4,0.0
mvc-13108,CoO2,1.3681999999999999
mvc-13445,Mg(MnN)2,0.0
mvc-13651,Mg(FeN)2,0.0
mvc-5022,TeWO6,1.9936999999999996
mp-1001011,TaO3,0.0
mp-1001016,Sc2ZnSe4,0.13960000000000017
mp-1001022,Cu2PPd2,0.0
mp-1001082,Si(CO)2,0.0
mp-1001113,Si,0.0
mp-1001571,CaFeO3,0.0
mp-1001602,B12W,0.0
mp-1003318,CaMn16O32,0.0
mp-1003484,MgMn4O8,0.49260000000000037
mp-1003549,LiMn16O32,0.0
mp-1003635,NaMn16O32,0.0
mp-1003636,NaMn4O8,0.08029999999999982
mp-1003638,NaMn8O16,0.0
mp-1003736,NaMn2O4,0.0
mp-1006118,P2S7,1.8908000000000003
mp-1006324,Ce(YS2)3,0.0
mp-1006367,Ce2HfSe5,0.0
mp-1006368,Ce2SnSe4,0.0
mp-1011696,Cs2Se,0.0
mp-1011709,Cs2Se,1.8141000000000003
mp-1011730,Cs2Se,0.0
mp-1012110,Cs,0.0
mp-1013730,Cd5(S2Cl)2,1.7228999999999999
mp-1013830,NaCo3P3O13,0.0
mp-1013874,NaTi3P3O13,0.0
mp-1013898,LiMo3P3O13,1.1762000000000001
mp-1013899,LiFe3P3O13,0.0