task_id,pretty_formula,band_gap
mp-770185,Li4CrFe3O8,1.7019000000000002
mp-770188,Li5Fe2P2(CO7)2,1.2533
mp-770202,Ni2(SO4)3,0.0087
mp-770204,Li5Fe2P2(CO7)2,1.207
mp-770209,Li3Ti(BO3)2,0.14990000000000014
mp-770210,CaY2O4,3.6651
mp-770213,Li3Ti(BO3)2,0.6219000000000001
mp-770218,ZnIn2O4,0.6364999999999998
mp-770224,Li4Cr3FeO8,2.3039000000000005
mp-770228,Li2FePCO7,2.4508
mp-770230,Li4CrFe3O8,1.6796999999999995
mp-770234,Li4Cr3CoO8,0.8301000000000003
mp-770236,Li4Cr3GaO8,3.0346
mp-770237,LiMnPCO7,0.9817
mp-770238,LiMnPCO7,0.9834
mp-770240,Li4AlCr3O8,3.1083
mp-770241,Li4Cr3GaO8,3.1166
mp-770242,LiCrBO3,2.1998
mp-770246,Li4MnCrO6,1.0543000000000002
mp-770248,LiMnPCO7,0.9401
mp-770253,Li4Cr3GaO8,3.0727
mp-770255,Li4Cr3CoO8,0.8064
mp-770257,Li4Cr3FeO8,2.4179
mp-770261,Mn2P2O7,3.2942
mp-770262,Li2Mn2(SO4)3,4.3938
mp-773408,Na5LiMn2P2(CO7)2,3.3387
mp-773409,NaLi5Fe2P2(CO7)2,4.0342
mp-773410,In2WO6,2.634
mp-773413,Na5LiMn2P2(CO7)2,3.3259
mp-773420,Na5LiMn2P2(CO7)2,3.2839
mp-773438,Li5Cu(PO4)2,1.6448999999999998
mp-773454,Li5CoO4,1.4066
mp-773491,RbH2SNO3,5.1827
mp-773513,Er2(WO4)3,3.917100000000001
mp-773514,Li2CoO3,1.1577
mp-773515,Te3WO12,1.5961000000000003
mp-773517,ScMn2O5,1.0248
mp-773519,Li4Mn3Fe(PO4)4,3.4465
mp-773520,CrPO5,0.0795
mp-773523,Na5LiFe2P2(CO7)2,3.5619000000000005
mp-773525,LiFe3O4,0.7842000000000002
mp-773528,Na5LiFe2P2(CO7)2,3.6439
mp-773529,Na5LiFe2P2(CO7)2,3.6025
mp-773535,LiVFeO4,1.9967
mp-773536,Na3NiO2,1.6021999999999998
mp-773539,NaLi5Mn2P2(CO7)2,3.6214
mp-773548,Li4Mn3Fe(BO3)4,2.9603
mp-773549,VOF2,1.3175
mp-773551,Li4MnFe3(BO3)4,3.1491
mp-773555,Na3NiO2,1.3346999999999998
mp-773556,VO2F,1.6827
mp-773560,LiMnF3,3.3288
mp-773561,Fe4OF7,0.8366
mp-777864,Li2MnF4,4.0596999999999985
mp-777869,Fe6O5F7,1.3783999999999998
mp-777890,Ti3NiSn2(PO4)6,2.0712
mp-777891,LiFeF4,2.8958000000000004
mp-777893,LiVF3,2.6218000000000004
mp-777898,LiFeF4,3.5555
mp-777911,Fe6O5F7,1.4273
mp-777912,Fe6O5F7,1.2268
mp-777914,FeOF,0.6481000000000003
mp-777915,Na2FeO2,0.9473
mp-778557,V2O3F,1.1818
mp-778562,Fe6O5F7,0.9536999999999998
mp-778566,Li4Mn3Fe(BO3)4,2.8847
mp-778567,Mn6OF11,0.25360000000000005
mp-778570,Fe4OF7,1.6445
mp-778572,Li2VFeP2(O4F)2,1.8099
mp-778574,V4(OF3)3,1.824
mp-778582,Fe6O5F7,1.4389999999999998
mp-778595,V2O3F,0.6941000000000002
mp-778597,Li2MnFe(BO3)2,3.0258000000000003
mp-778617,Ni3OF5,0.5882999999999999
mp-778622,Li3Fe2(SiO4)2,1.9232
mp-778623,LiV6O7F5,1.1931999999999996
mp-778624,Fe6O5F7,1.5766
mp-778631,Li3Mn2(SiO4)2,0.36970000000000014
mp-778633,LiMnF3,3.5293
mp-778634,Tb2WO6,3.2092
mp-778638,Fe3(OF2)2,0.9068000000000004
mp-778639,NiTe(PO4)2,2.9147
mp-778655,Li2CoBO4,1.3407999999999998
mp-778657,LiMnF5,2.1629000000000005
mp-778661,LiCu5(PO4)2,0.29000000000000004
mp-851005,Li2Mn3(BO3)3,0.5482999999999998
mp-851010,LiFePH2O5,3.1635
mp-851011,LiMnP3HO10,0.8188
mp-851012,LiMn(PO3)3,4.1326
mp-851015,LiMn3(BO3)3,0.4291
mp-851017,Na2CoO3,0.4148000000000001
mp-851019,VOF,1.3131
mp-851032,VOF,0.8862999999999999
mp-851034,MnOF,0.2813000000000001
mp-851035,NaV3O8,2.0836
mp-851036,P3(WO6)2,2.0565
mp-851040,V2OF5,1.5246
mp-851042,FeOF,1.1296
mp-851047,LiFe2OF3,2.3115
mp-851077,LiMnP2(HO4)2,1.0385999999999995
mp-851268,LiNiPO4,2.9905
mp-851281,Li3Mn2(PO4)3,0.5818999999999999
mp-853141,Li3V4O11F,1.3797
mp-853149,VOF2,1.2292999999999998
mp-853155,V3(O2F)2,0.5533999999999999
mp-853156,V4(OF3)3,0.7861
mp-853157,Ni6OF11,0.8731000000000001
mp-853158,Li2CoOF3,0.9458
mp-853159,Li7(CoO3)2,1.1312000000000002
mp-631589,VN2(Cl3O)2,1.3230000000000002
mp-631621,VBi(PbO3)2,2.4006
mp-632532,Yb2S3,1.5016999999999996
mp-632685,NaH4CNO2,5.3232
mp-632706,ZnH8(N2Cl)2,4.5084
mp-634062,RbCdH2I3O,2.49
mp-634113,Cd2H2SO6,2.616
mp-634429,H4N2O3,3.1066000000000003
mp-677422,Ca2Ga2Si(HO4)2,3.5092
mp-677549,Ca2Al2SiO7,3.2089000000000003
mp-677703,Nd4Si4N7ClO3,3.168
mp-677731,Rb2NaNb6(PO8)3,2.251
mp-677780,Ca2MgSi2O7,4.233700000000002
mp-679927,Rb2Sc(NO3)5,3.0417
mp-679975,KGaO2,2.8487
mp-680015,Re3(SeBr)7,1.3152
mp-680046,CdI2,2.3373
mp-680047,CdI2,2.3387
mp-680055,CdI2,2.3639
mp-680059,Re3(SCl)7,1.6775000000000002
mp-696403,BHO2,6.0887
mp-721875,CaB2(HO)8,5.4176
mp-722189,H8PtN2(ClO)2,2.4202
mp-722263,ZrH14C2(N4F3)2,4.6251
mp-722315,ZnH3CNO3,3.5189999999999997
mp-722348,RbP(HO2)2,4.4694
mp-722382,PH11C(NO2)2,0.24760000000000004
mp-722401,ZnH16C6S2(N2Cl)2,4.1405
mp-722485,SrP2(H2O3)3,5.3385
mp-722686,SiH10C2N4(OF3)2,5.5053
mp-722997,NaCaAlH2OF6,6.6368
mp-759207,LiSb(TeO4)3,1.2295000000000005
mp-759223,Sn(SO4)2,2.3798
mp-759224,Li5CuF8,0.7916000000000001
mp-759289,LiBi(PO3)4,4.6826
mp-759290,Li3Bi2(PO4)3,3.5627000000000004
mp-759329,LiBi3(P3O10)2,3.635
mp-759341,Li4Cu(PO3)6,0.3361000000000001
mp-759342,Nb9AsO25,2.1016
mp-759360,LiBi(PO3)4,3.2667
mp-759381,Li3Bi2(PO4)3,3.0965000000000003
mp-759406,Li3Sb(PO4)2,3.3311
mp-759413,ZnPH4NO4,4.0772
mp-759416,Li3Sb(PO4)2,3.1144000000000003
mp-759432,LiCu(PO3)3,0.6513999999999998
mp-759435,LiCu(PO3)3,0.3971
mp-759450,Sb5O7F,2.662
mp-759455,LiSbP2O7,3.3884
mp-759493,LiSbP2O7,4.0237
mp-759498,LiSbP2O7,3.7232
mp-759526,Bi2O3,1.7255000000000005
mp-759534,LiBi2(SO4)3,0.5619000000000001
mp-759624,Li3Bi(PO4)2,3.9119
mp-759638,Y5Tm11O24,4.047700000000002
mp-759640,LiCuCO3,2.0308
mp-759650,Li3Bi3(PO4)4,3.0989
mp-759658,LiAgF2,1.527
mp-759673,LiBiP2O7,4.1874
mp-759707,Sb4O5F2,3.0228
mp-763554,LiVP2O7,2.1716999999999995
mp-763557,LiCoSiO4,1.3329
mp-763558,LiV2(CO3)4,0.7772000000000001
mp-763560,LiMn2(CO3)4,0.7192000000000001
mp-763562,LiVP2O7,0.17749999999999974
mp-763563,LiCoSiO4,0.6967000000000001
mp-763564,LiV(PO3)3,2.588
mp-763567,LiV(CO3)2,2.4047
mp-763568,LiV2(CO3)4,0.8425
mp-763572,LiV2P5O16,2.1234
mp-763574,LiV2(PO4)3,1.2041
mp-763580,LiFeO3,0.3317
mp-763583,LiVP2O7,2.2103
mp-763591,NiSn(PO4)2,2.7113000000000005
mp-763592,LiCoSiO4,1.4676
mp-763594,LiCoSiO4,0.7974000000000006
mp-763596,Fe2C2O7,1.6809
mp-763598,LiV(PO3)4,2.2487000000000004
mp-763600,LiCo2C2O7,1.0033
mp-763601,LiV2(CO3)4,0.8400999999999998
mp-763603,LiP3(WO6)2,0.9246000000000004
mp-763607,LiP(WO4)2,0.058300000000000025
mp-763608,LiMn7O12,0.4108000000000001
mp-763612,Li3Mn2(CO3)4,0.5049
mp-763613,LiMn2(CO3)4,0.23649999999999996
mp-763614,LiMn(CO3)2,0.8051
mp-763615,LiFe2C2O7,2.3088
mp-763619,Li2Fe(SiO3)2,3.3925
mp-763621,LiFe(PO3)3,3.8562
mp-763623,LiFe(PO3)4,2.5151
mp-763624,Li2Fe(SiO3)2,2.8795
mp-763625,LiFeSiO4,2.2198
mp-763630,Co2C2O7,0.6570999999999999
mp-763631,LiVP3HO10,2.1948
mp-763634,VCrO4,1.8334
mp-763638,LiFeP2O7,2.3635
mp-763641,LiFeSiO4,2.9586
mp-763642,LiFeP2O7,2.0977
mp-763643,LiMn(PO3)3,3.6891
mp-763645,Li2FeSiO4,3.0894000000000004
mp-763650,LiP3W2O13,3.8082
mp-763651,LiVP2O7,1.9782
mp-763657,V3Zn7H3SO19,2.6999
mp-766581,Li4TiS4,1.9017
mp-766596,Ti(SiO3)2,3.2748
mp-766602,V4OF11,1.486
mp-766613,LiVP2O7,2.0382
mp-766636,LiNiPO4,2.9376
mp-766651,LiNiPO4,3.2155
mp-766656,Li3V3O5F3,1.4294999999999998
mp-766658,LiV2OF5,1.7496999999999998
mp-766668,Mn6OF11,0.5246
mp-766669,LiMn2F5,3.2635
mp-766723,CoTe2O5,2.0432
mp-766724,Li3Ni5OF11,3.1784
mp-766726,LiCoPO4,0.00099999999999989
mp-766728,LiV(SiO3)2,2.1655
mp-766737,LiVF4,2.06
mp-766751,CoBO3,1.0667
mp-766752,Li7Fe7SiO16,1.4380000000000002
mp-766754,Li2NiP2O7,2.4723
mp-766757,Ti2Fe4O9,1.3253000000000004
mp-766762,LiFePO4,3.6405
mp-766763,LiFePO4,3.3829
mp-766764,Li2VOF4,2.6196
mp-766766,LiFePO4,3.3899
mp-766769,LiFePO4,3.569
mp-766770,LiFePO4,3.3629
mp-766772,LiFePO4,3.4327
mp-766773,AlVO3,1.0816999999999997
mp-766774,LiFePO4,3.2165
mp-766777,LiFePO4,3.4967
mp-766781,VF5,3.0714
mp-766784,V3CoO8,1.1212
mp-766789,MnF3,0.8374000000000001
mp-770290,Li3B2SbO6,2.8223000000000003
mp-770303,Li4Cr3FeO8,2.3087
mp-770306,Li4Cr3GaO8,3.1494
mp-770308,Li24Mn5Cr7O36,1.007
mp-770309,Li2Fe2(SO4)3,4.2958
mp-770311,Li4AlCr3O8,3.204
mp-770315,RbFeO2,2.0316
mp-770316,Li4AlCr3O8,3.0624
mp-770330,LiVBO4,0.20860000000000006
mp-770333,Li2VBO4,2.2751
mp-770334,Li2VBO4,2.2955
mp-770336,Li4Cr3GaO8,3.1699
mp-770339,LiVB2O5,2.1161000000000003
mp-770340,Li4Cr3CoO8,0.8859000000000004
mp-770342,Tb2(WO4)3,4.3417
mp-770343,Li3V(BO3)2,2.6991000000000005
mp-770345,Li3V(BO3)2,2.0244
mp-770349,LiVSiCO7,1.7103
mp-770351,Tb2(WO4)3,3.9217
mp-770354,Li3V3(BO5)2,0.7279
mp-770357,Li2AlNiO4,1.8099
mp-770358,Li3V3(BO5)2,1.0750000000000002
mp-770360,Li2AlVO4,2.3276
mp-770362,Li3Al2VO6,2.2174
mp-770365,LiAlVO4,0.3655
mp-770368,Li3V3(BO5)2,0.7012
mp-770370,V3BO6,1.2364999999999997
mp-770376,Mn2P4O13,1.1223999999999998
mp-770379,Tm2GeO5,3.3808000000000007
mp-770380,Ta3InO9,2.8473
mp-770381,Li3V3(BO5)2,0.6788999999999996
mp-770382,Li3V3(BO5)2,1.0475000000000003
mp-770383,Li2Cr2(SO4)3,2.2954
mp-770384,RbFeO2,1.9188
mp-770388,RbFe3O5,1.6244999999999998
mp-770392,BaLaBr5,3.1518
mp-770399,Li6Ti2O7,2.4848
mp-770400,Li2AlNiO4,1.6721
mp-770401,SbPO4,3.342
mp-773565,Li4FeO3F,2.4999
mp-773598,TiFe5(PO4)6,1.366
mp-773599,NaSb3O8,0.8921999999999999
mp-773612,Li4MnFe3(BO3)4,0.06219999999999981
mp-773617,Fe6O5F7,1.4227999999999998
mp-773619,V3Fe(PO4)6,1.1688999999999998
mp-773621,Ni6OF11,0.9059
mp-773622,LiFe2P2HO8,3.5894000000000004
mp-773634,NaLi5Mn2P2(CO7)2,3.5754999999999995
mp-773678,Na2LiFePCO7,3.6297
mp-773697,Li2VSiCO7,1.9614000000000005
mp-773708,LiMnPO4,3.4749
mp-773710,Na2LiMnPCO7,3.3549
mp-773712,Li2TiCr3O8,0.03410000000000002
mp-773714,SrV4O10,1.6631
mp-773720,LiMnSbO4,0.33919999999999995
mp-773731,Co3OF5,0.08619999999999994
mp-773740,Fe6O5F7,1.0872000000000002
mp-773741,Fe4O3F5,1.5662
mp-778681,V3SnO8,0.8160000000000003
mp-778683,Li3MnFe2(BO3)3,2.7981
mp-778686,V2OF5,0.6579000000000002
mp-778687,LiMnF4,0.6967
mp-778688,Fe6O5F7,1.3922
mp-778696,Fe6O5F7,1.0713
mp-778697,LiMnF3,3.8372
mp-778698,Ga3NO3,0.9003000000000001
mp-778699,V3OF11,1.6069999999999998
mp-778703,Li4Mn3F10,2.9960000000000004
mp-778704,LiFe2F5,3.0917
mp-778706,Fe6O5F7,1.1025000000000005
mp-778707,Co2OF3,0.6997999999999999
mp-778708,Fe5O3F7,1.4140000000000001
mp-778709,Li2FePHO5,3.8225
mp-778710,LiMnP2(HO4)2,1.2826
mp-778716,CrO3,1.8552
mp-778721,Li8Mn7Fe(BO3)8,2.9745000000000004
mp-778722,Na2FeO3,0.0916
mp-778723,Li3MnFe2(BO3)3,2.7703
mp-778724,Fe4OF7,1.1598
mp-778726,Fe4OF7,0.04849999999999999
mp-778728,Li2MnVP2(HO5)2,0.4663
mp-778732,Li2MnF4,4.0178
mp-778733,Mg3WO6,3.5908
mp-778735,Mn6OF11,0.3946
mp-778739,LiCu5(PO4)2,0.3059000000000003
mp-778743,Li5Cu(PO4)2,1.7069
mp-778749,VOF2,1.5198
mp-778752,In2WO6,2.4632000000000005
mp-778755,Li8MnFe7(BO3)8,3.1258
mp-778756,LiVBO3,2.2229000000000005
mp-778769,LiV6O7F5,1.09
mp-778770,Li2MnV(P2O7)2,0.2869000000000001
mp-778772,Li3Cu3(PO4)2,0.7242999999999995
mp-778773,Fe5O3F7,1.3016
mp-778786,V2O3F,1.2125
mp-778790,NaV5O8,1.3228
mp-778791,Fe4OF7,1.3306000000000002
mp-778793,Li4Fe3(SiO4)3,0.9762
mp-778794,V3Cr2Sb3O16,1.1733000000000002
mp-778799,Nb3P6WO24,1.0375
mp-853160,Mn3(OF2)2,0.0020999999999999908
mp-853169,Li8CoO5F,0.9272
mp-853170,Li2MnO2F,1.0629
mp-853171,LiV3OF11,1.7218
mp-853174,LiFeCoO4,0.6507999999999998
mp-853179,Ti3VFe2(PO4)6,0.06940000000000035
mp-853184,NiP6(WO8)3,1.8926000000000005
mp-853194,Li2Mn3(BO3)3,0.36760000000000015
mp-853195,Li2Mn3(BO3)3,0.24350000000000005
mp-853199,LiCo2OF3,1.7796
mp-853203,LiVP2(HO4)2,2.0336
mp-853215,W(SO4)2,2.8632
mp-853233,Fe10O9F11,0.9673000000000004
mp-853240,LiCoO2,0.5174000000000003
mp-853248,LiVCrO4,1.2521999999999998
mp-853251,LiVP3HO10,2.2504
mp-853254,Fe10O9F11,1.1675999999999995
mp-853260,V3O5F,0.5218000000000003
mp-853261,Ni3OF5,0.6954
mp-853262,Fe10O9F11,1.2817999999999998
mp-853267,Fe10O9F11,1.2079
mp-853268,Fe10O9F11,0.4756
mp-853274,Li2AlCoO4,0.8363999999999998
mp-861911,Sb2S2O,1.1829999999999998
mp-634977,Cs3Fe2Cl9,0.5004
mp-635441,SiI4,2.8561
mp-636559,Cd(C2N3)2,4.5484
mp-636731,Zr(MoO4)2,3.1318
mp-636921,VO2,1.1027000000000002
mp-636976,VO2,1.2022000000000002
mp-636978,KCuCl3,0.24149999999999994
mp-637201,Mo2P2O11,2.8121
mp-637213,La2GeI2,0.4049000000000005
mp-637235,KC2N3,4.5005000000000015
mp-637242,RbC2N3,4.5772
mp-637256,KC2N3,4.3293
mp-637295,ZnFeC5N6O,0.14360000000000014
mp-637336,NaSbMoO5,3.3588
mp-637389,Na3VS3O,2.0084
mp-680085,ZnS,2.0167
mp-680087,ZnS,2.021
mp-680093,CdI2,2.3358000000000003
mp-680094,CdI2,2.3354
mp-680095,CdI2,2.3417
mp-680112,CdI2,2.3322
mp-680113,CdI2,2.3441
mp-680114,CdI2,2.3553
mp-680115,CdI2,2.3587
mp-680116,CdI2,2.3523
mp-680118,CdI2,2.3483
mp-680119,CdI2,2.3526
mp-680120,CdI2,2.355
mp-680122,TlB5O8,5.1834
mp-680144,CdI2,2.3255
mp-680145,CdI2,2.3195
mp-680146,CdI2,2.3356
mp-680148,CdI2,2.322
mp-680152,CdI2,2.3691000000000004
mp-680153,CdI2,2.3454
mp-680172,CdI2,2.3409999999999997
mp-680205,PbI2,2.3538
mp-680219,UPb(SeO4)2,2.0090000000000003
mp-680248,Os5(CO)16,1.9933
mp-723044,ZnH12N3Cl5,4.4143
mp-723064,Ti3(BiO3)4,2.3715
mp-730945,KAl2P2H5O11,5.0878999999999985
mp-730972,UP3H10ClO8,0.3782999999999999
mp-733508,SmH5(SeO4)2,4.4319999999999995
mp-733509,Na2TiSi4H4O13,3.2593
mp-733581,PrH(SeO3)2,3.5309
mp-733590,TlCuHCO4,0.3826999999999998
mp-733612,RbH3(SO4)2,5.6712
mp-733653,CaAl2Si2(H2O5)2,5.1385000000000005
mp-759720,LiCuO2,0.4525000000000001
mp-759722,SiH8(NF3)2,6.464599999999999
mp-759728,Sb7(O2F3)3,2.7587
mp-759737,Ti3(SnO5)2,1.6193999999999995
mp-759750,BiOF,3.1627
mp-759767,LiCu(PO3)3,0.6400999999999999
mp-759793,LiTi2(PO4)3,2.6006
mp-759812,Li4Ti11O24,2.2962
mp-759821,Sb3O2F5,3.4665
mp-759825,BiOF,2.5742000000000003
mp-759868,Li3Sb2(PO4)3,2.4939
mp-759871,LiBi(PO3)4,4.3278
mp-759873,Sb8O11F2,2.25
mp-759894,Bi7(O2F3)3,2.6676999999999995
mp-759925,Zn2Hg2H2Se2O11,1.4492
mp-759933,Li2Sn(BO3)2,2.385
mp-759985,Bi3O2F5,3.4435
mp-760007,Hf3N2O3,3.2891000000000004
mp-760017,Li2TiO3,1.5749
mp-760052,Hf2N2O,1.8812000000000009
mp-760054,Sn9(O2F5)2,2.4885
mp-760092,SbOF,3.0222
mp-760103,Sr15Pd5O24,0.6658999999999997
mp-763660,LiMn(PO3)4,1.0613
mp-763662,Co2C2O7,0.4769999999999999
mp-763665,V(CO3)2,1.5352
mp-763669,Li4Ti2Mn3O10,0.8577999999999997
mp-763672,FePO4,2.3689
mp-763673,Fe2C2O7,1.9680000000000002
mp-763677,VFe3Ni2(PO4)6,1.2288
mp-763680,LiMn3Al2(HO2)6,0.5964
mp-763681,LiV2(CO3)4,1.7715999999999998
mp-763683,LiFeP2O7,2.7387
mp-763700,LiFeO3,0.1658
mp-763701,LiCrSiO4,2.0247
mp-763703,Li3CrO4,1.0166
mp-763705,Zn2Ni3O5,1.5657999999999994
mp-763710,Li3Mn4O8,0.7410999999999999
mp-763712,LiTi2VO6,1.5649999999999995
mp-763715,FeOF,1.7348
mp-763716,LiMnPO4,3.1127
mp-763718,Li2Mn(SiO3)2,2.76
mp-763719,LiMn2(PO3)5,4.0219
mp-763730,Li2VPO4F,2.4724
mp-763731,LiV3F10,1.7053
mp-763741,LiMnP2O7,1.4549
mp-763744,LiMnP3HO10,0.9313
mp-763745,Li2FePO4F,3.6955
mp-763748,Li2CrPO4F,2.3471999999999995
mp-763758,LiFePO4,3.5158
mp-766790,VF4,0.7376999999999999
mp-766792,MnCoO4,1.1610999999999998
mp-766798,LiMnOF2,2.0584
mp-766802,Li5MnF8,1.9824
mp-766803,CrOF,2.149
mp-766828,Li4Ti15O32,2.0055
mp-766843,WOF4,3.1229000000000005
mp-766844,V3FeO8,0.7162999999999999
mp-766848,LiMn2F9,2.2518
mp-766851,Li4V(PO4)2,3.2092
mp-766853,LiMn2F7,1.6717
mp-766856,CuPO3,0.8381999999999996
mp-766857,LiMn2F7,1.6746
mp-766859,LiV3(OF3)2,1.2184
mp-766860,LiMnF4,2.8769
mp-766861,LiVF4,2.3366
mp-766866,Li4Mn5O9F,0.9698000000000002
mp-766869,V2Bi24O41,1.6562
mp-766879,WOF4,4.8905
mp-766881,H7SIO10,2.3634
mp-766902,LiMn2F7,1.7055000000000002
mp-766903,Li2MnF6,2.8175
mp-766910,Li2VF6,2.0229
mp-766911,LiVF4,2.2904
mp-766912,LiVF6,3.1853
mp-766913,VSn(PO4)2,0.0423
mp-766916,Li2VF7,1.0091
mp-766924,LiMnOF2,1.1110000000000002
mp-766925,LiVF5,1.5758
mp-766926,LiVF6,3.1403000000000003
mp-766928,Li4Mn3OF11,1.2576
mp-766929,Sn4P2O9,2.2198
mp-766931,Li2Si2NiO6,3.3892
mp-766936,LiVF6,3.2555
mp-766937,LiVF6,3.0894
mp-766942,Li2MnF5,1.8375
mp-766947,Sn(PO3)2,3.7796
mp-766952,LiVF4,2.1645000000000003
mp-766954,LiVF5,1.8983
mp-766963,Li5VF8,2.5606
mp-766965,Li2MnOF3,1.4670999999999998
mp-770403,Li4V2(PO4)3,0.20920000000000005
mp-770404,Li4V2Si(PO6)2,1.8049
mp-770405,BaLaBr5,2.7230000000000003
mp-770406,Sm2WO6,3.7504
mp-770408,Rb6Ti2O7,3.2141
mp-770409,Tm2GeO5,3.947400000000001
mp-770413,LaHoO3,4.024699999999998
mp-770414,LiAlVO4,1.709
mp-770416,Dy2WO6,3.2102
mp-770419,Sr2Zr7O16,3.8849
mp-770426,Ho(ClO4)3,5.0172
mp-770431,Ho2(SeO4)3,3.7327
mp-770448,La2Ti3O9,2.6215
mp-770456,Li6Ti2O7,2.3765
mp-770469,Li5TaO5,3.9015
mp-770474,La4Ti3O12,1.873
mp-770483,Rb3FeO3,1.7836
mp-770487,Li3V3(BO5)2,0.4739
mp-770506,V5BO9,1.4442
mp-770509,LiAlVO4,0.32609999999999983
mp-770510,Li5MnO4,0.8122
mp-770514,Li5MnO4,1.3683999999999998
mp-770519,Li2AlVO4,2.2381999999999995
mp-770522,Li2AlVO4,2.5024
mp-770528,Li5MnO4,0.2487999999999999
mp-770531,MnP2O7,0.8516999999999999
mp-770532,Mn2PO5,0.6947999999999999
mp-773747,Li3Fe4(BO3)4,1.5164
mp-773748,Li2MnF5,1.619
mp-773749,Co3OF5,0.35239999999999994
mp-773750,V3(O2F)2,0.2564000000000002
mp-773751,Fe3(OF2)2,1.2595
mp-773754,Fe6O5F7,1.2019
mp-773759,Co3(OF2)2,0.28669999999999995
mp-773760,Fe5(OF2)4,0.8764999999999998
mp-773762,Li2MnFe(BO3)2,3.0858
mp-773768,Na2CoO3,0.7591999999999999
mp-773770,LiMnF4,2.1837
mp-773779,Li2Cr3NiO8,0.7109999999999999
mp-773843,LiTi2(PO4)3,2.2960000000000003
mp-773887,TiBi2O5,2.5742000000000003
mp-773900,BaCa2I6,3.636800000000001
mp-773910,Er2GeO5,3.6141
mp-773918,Zn(Bi19O30)2,0.9178000000000006
mp-773919,Cr3(CoO6)2,0.7207
mp-773926,VFe(PO4)2,0.06570000000000009
mp-773946,Mn3CrO8,0.8818
mp-773972,Mn(SO4)2,0.2263
mp-773973,V(SO4)2,0.9829
mp-778800,LiMnF3,3.5504
mp-778801,Li2MnF4,3.8952
mp-778814,Tm2WO6,3.6258
mp-778815,Li2CoP2O7,2.9811000000000005
mp-778821,Li3MnFe2(BO3)3,2.7688
mp-778822,Mn2(SO4)3,0.11529999999999994
mp-778823,Fe5(OF4)2,1.6033000000000002
mp-778859,Li3Mn2Fe(BO3)3,2.6271
mp-778863,Fe5(OF4)2,1.3919
mp-778870,LiFe2OF3,2.7818
mp-778878,BaLi4O3,3.3976
mp-778882,Li8Mn5Fe3(BO3)8,0.06500000000000039
mp-778890,Li3MnV(PO4)3,0.29890000000000017
mp-778899,LiCrPO5,0.40800000000000014
mp-778908,Ni3OF5,0.3077000000000001
mp-778911,Li4Mn3Fe(BO3)4,2.966
mp-778913,Li3Mn2Fe(BO3)3,2.6594999999999995
mp-778918,TmVO3,1.6208999999999998
mp-778919,LiFePH2O5,3.2717
mp-778920,Li4Mn3Fe(BO3)4,2.9671
mp-778922,V2(OF)3,1.6878000000000002
mp-778926,Li4MnFe3(BO3)4,3.1839000000000004
mp-778949,Li2CuPO4,1.1188000000000002
mp-778982,Li4MnFe3(BO3)4,3.1295
mp-778983,Li6MnV3(PO4)6,0.13640000000000008
mp-779001,Sr4Hf3O10,4.0727
mp-779031,NaV(PO4)2,2.0431
mp-779046,Li5Cu(PO4)2,2.0374000000000003
mp-779056,Li2FeP2O7,3.9628
mp-779059,LiV4O5F7,0.8908
mp-862670,Sr3Co(CN)3,1.1028000000000002
mp-862671,ThF4,6.1267
mp-863365,Li2Sn(PO3)4,3.8058
mp-863367,KBiO3,0.4905999999999999
mp-863377,Li2SnP2O7,2.2417
mp-863868,Li2VF5,3.0374
mp-863879,TiCo3(PO4)4,0.2469000000000001
mp-863897,Li2Si3NiO8,3.7995
mp-863898,Co(IO3)2,2.5895
mp-863910,CoTe2O5,2.3711
mp-863916,Ta2Co4O9,2.0519
mp-863917,LiNi(PO3)4,0.002600000000000005
mp-863961,SrNi2P2(H2O5)2,3.8951
mp-864617,NdI3,2.0128
mp-864666,Nd3SiAgS7,1.7719999999999998
mp-864879,NbC2NCl8,2.3142
mp-864891,NaPO3,5.1221
mp-865133,NaNiCSO7,0.07330000000000003
mp-865135,Li2CrFeO4,1.9891
mp-865203,YCuPbS3,1.5938999999999997
mp-865353,TmI3,2.2545
mp-637582,Rb2BaPt2(CN)8,1.6897
mp-638005,SeO2,3.1316
mp-638033,SiO2,0.21039999999999992
mp-638686,AgNO3,2.0089
mp-638765,Al2O3,0.6822999999999997
mp-639463,SiO2,5.3927000000000005
mp-639480,SiO2,5.6231
mp-639506,SiO2,5.6572
mp-639512,SiO2,5.6163
mp-639682,SiO2,5.6453
mp-639733,SiO2,5.6305
mp-639741,SiO2,5.6595
mp-640058,PbI2,2.4017
mp-640324,TmCuPbSe3,1.1235
mp-640357,Al2SiO5,4.0596
mp-680387,PrYSi2O7,0.6189999999999998
mp-680388,ZnCuTeCl2O3,9.9999999999989e-05
mp-680462,SiC4(SN)4,3.5356
mp-680571,Tc(CO)5,2.9447
mp-680689,SrTi2O5,1.8634
mp-680781,Rb3Tm(SO4)3,0.4684
mp-681439,LiZr2(PO4)3,4.2314
mp-733929,P2H4PbO8,4.4499
mp-734123,RbSrP3(HO2)6,5.3296
mp-734771,PrP2(HO)7,5.2332
mp-735023,H4CSN2,3.3742
mp-735488,RbNa3Mo2H18O17,4.5822
mp-735524,VP2(HO)6,2.8845
mp-735531,NiH8(ClO2)2,3.9693
mp-735541,NiSn2H12(OF)6,4.5576
mp-735545,Rb2FeH2Cl5O,2.1756
mp-735567,VAs2H4O9,2.5663
mp-735578,SrMoAsH3O8,2.9342
mp-735715,YbV4O8,0.8961000000000001
mp-760151,LiAgF3,0.16959999999999995
mp-760162,BiOF,3.2117
mp-760184,Na4Ti5O12,2.7626
mp-760188,Nb3O7F,2.2294
mp-760231,LiSn2(PO4)3,3.0522
mp-760244,Ca4Nb2O9,2.9770000000000003
mp-760251,Na2CuP2O7,0.5227999999999999
mp-760304,Li2Cu2F7,0.03899999999999992
mp-760348,Li10Zn3(GeO4)4,2.7679
mp-760353,LiCu2F7,0.16639999999999988
mp-760401,Nb3O7F,0.716
mp-760417,Rb4I2O,0.8507