task_id,pretty_formula,band_gap
mp-1016929,MgRhO3,0.0
mp-1016930,ZnGeO3,0.0
mp-1016931,VZnO3,0.0
mp-1016932,MnZnO3,0.0
mp-1016938,VHgO3,0.0
mp-1016999,SrGeO3,0.0
mp-1017173,RbMg6Nb,0.0
mp-1017182,RbMg6W,0.0
mp-1017220,RbMg6Mo,0.0
mp-1017441,SrRhO3,0.0
mp-1017446,HfCdO3,0.0
mp-1017447,HgGeO3,0.0
mp-1017465,BaVO3,0.0
mp-1017541,ZrIr,0.0
mp-1017545,ZrRh,0.0
mp-1017577,Ho3AlN,0.0
mp-1017578,HfBRh3,0.0
mp-1017580,KMgH3,0.0
mp-1017581,LaPd3C,0.0
mp-1017582,LaPt3C,0.0
mp-1017591,BaRuO3,0.0
mp-1018792,LuS2,0.0
mp-1018793,LuSe2,0.0
mp-1018794,Mg2Ge,0.0
mp-1018795,Mg2Sn,0.0
mp-1018797,MgAgSb,0.0
mp-1018798,MgCuGe,0.0
mp-1018799,MgSc3Ru2,0.0
mp-1018800,MnCuAs,0.0
mp-1018802,MnGaGe,0.0
mp-1018803,MnCoSb,0.0
mp-1018804,MnS2,0.0
mp-1018808,MgCoGe,0.0
mp-1018810,Na2Cl,0.0
mp-1018811,NbGeSb,0.0
mp-1018812,NbGeAs,0.0
mp-1018813,NdCoP,0.0
mp-1018814,NdSbTe,0.0
mp-1018817,NdSe2,0.0
mp-1018818,NdTeCl,0.41999999999999993
mp-1018819,NdTlCd,0.0
mp-1018821,NdTlZn,0.0
mp-1018822,NdZnIn,0.0
mp-1018824,NpSbTe,0.0
mp-1018825,NdPbAu,0.0
mp-1018826,NdGeAu,0.0
mp-1018828,NpSeO,0.0
mp-1018829,NpTe2,0.0
mp-1018849,OsN,0.0
mp-1018852,OsN2,0.0
mp-1018880,PaSb2,0.0
mp-1018886,PdO2,0.0
mp-1018892,PrCoSi,0.0
mp-1018893,PrCuSn,0.0
mp-1018895,PrFeSi,0.0
mp-1018896,PrPbAu,0.0
mp-1018897,PrCoP,0.0
mp-1018899,PrSbPd,0.0
mp-1018900,PrCuPb,0.0
mp-1018936,PrSbTe,0.0
mp-1018940,PrSe2,0.0
mp-1018942,PrTlCd,0.0
mp-1018946,PrZnGa,0.0
mp-1018952,PrZnIn,0.0
mp-1018954,PuSe2,0.0
mp-1019051,ReC2,0.0
mp-1019052,ReN,0.0
mp-1019055,ReN2,0.0
mp-1019077,ReN2,0.0
mp-1019078,ReN2,0.0
mp-1019080,ReN2,0.0
mp-1019082,RuN2,0.0
mp-1019083,ReN2,0.0
mp-1019087,CaSnHg,0.0
mp-1019091,LaSe2,0.0
mp-1019093,PaP2,0.0
mp-1019099,SmCoP,0.0
mp-1019100,SmFeSi,0.0
mp-1019101,SmGeAu,0.0
mp-1019102,SmMnSi,0.0
mp-1019103,SmSbPd,0.0
mp-1019104,CaSnHg,0.0
mp-1019105,KMgBi,0.38549999999999995
mp-1019108,SmCoSi,0.0
mp-1019109,SmGeRu,0.0
mp-1019138,SmSbTe,0.0
mp-1019239,PdN2,0.0
mp-1019253,SmSe2,0.0
mp-1019255,SmTlCd,0.0
mp-1019256,SmTlZn,0.0
mp-1019257,SmZnGa,0.0
mp-1019259,SrSnHg,0.0
mp-1019266,SmTe2,0.0
mp-1019275,TbCuSn,0.0
mp-1019276,TaSe2,0.0
mp-1019277,SrHgPb,0.0
mp-1019278,TbGeAu,0.0
mp-1019279,SrZnSn,0.0
mp-1019280,SrZnPb,0.0
mp-1019315,TbSbPd,0.0
mp-1019317,TcB2,0.0
mp-1019319,TcN,0.0
mp-1019324,TbTe2,0.0
mp-1019358,ThAsS,0.0
mp-1019359,ThSbSe,0.0
mp-1019361,ThSbTe,0.0
mp-1019362,ThBiTe,0.0
mp-1019363,ThTeAs,0.0
mp-1019596,CeZrO4,1.8185000000000002
mp-1019599,CePO4,0.0
mp-1019719,CsSi2BO6,5.258900000000001
mp-1019727,NaEuGeO4,0.0
mp-1019738,BaEu2O4,0.0
mp-1019739,Eu2Ge(BO4)2,0.0
mp-1019889,KSi2BO6,5.3233999999999995
mp-1020010,Li2Ca3N6,0.0
mp-1020587,SrMg3SiN4,2.4132999999999996
mp-1020608,SiP2O7,4.942200000000001
mp-1020626,Zr2Ga(PO4)3,4.186999999999999
mp-1026933,TeMo2SeS2,0.0
mp-1026941,Te2Mo3W(Se2S)2,0.0
mp-1026948,TeMoWSe2S,0.0
mp-1026958,TeMo2Se2S,0.0
mp-1026969,Te2MoWS2,0.0
mp-1026976,TeMoWSe2S,0.0
mp-1026978,Te4MoW3S4,0.0
mp-1026983,Te2Mo2SeS,0.10150000000000015
mp-1026988,TeMoWSeS2,0.0
mp-1026989,Te2Mo3W(Se2S)2,0.0
mp-1026990,Te2Mo3W(Se2S)2,0.0
mp-1027001,Te2MoW3(Se2S)2,0.0
mp-1027002,Te2MoW3(SeS2)2,0.0
mp-1028597,Te2MoWSe2,0.026100000000000012
mp-1028604,TeWS,0.0
mp-1028621,Te4MoW3(SeS)2,0.0
mp-1028626,Te4MoW3(SeS)2,0.0
mp-1028643,Te3MoWS,0.025799999999999823
mp-1028646,Te6MoW3Se2,0.30269999999999975
mp-1028651,Te4MoW3(SeS)2,0.0
mp-1028669,TeW2SeS2,0.0
mp-1028674,Te4MoW3(SeS)2,0.0
mp-1028679,Te2W2SeS,0.0
mp-1028683,TeW2Se2S,0.0
mp-1029640,Ba3OsN3,0.0
mp-1029655,Sr3WN3,0.0
mp-1029659,Ca3FeN3,0.0
mp-1029959,Ca2MnN3,0.0
mp-1031127,RbLiMg6O7,0.0
mp-1034098,KRbMg14O15,2.1228999999999996
mp-1034150,KRbMg14O15,2.014
mp-1034162,RbMg14CO16,0.0
mp-1034206,RbHfMg14O15,0.0
mp-1034797,RbNaMg14O15,1.3200000000000003
mp-625230,Zn(HO)2,1.9871999999999999
mp-625548,Cd(HO)2,1.637
mp-625578,H5BrO2,4.0870999999999995
mp-625654,TeHO3,2.0787999999999998
mp-653005,Ca2(Fe2O3)11,0.0
mp-653559,P4Se3I2,1.7165000000000001
mp-653569,Al2P2O11F,0.0
mp-653697,Ta(CoTe)2,0.0
mp-695992,LiH2BrO5,1.8113000000000001
mp-695995,ReSbH4O7,2.834
mp-696127,Li10Ge(PSe6)2,1.0491000000000001
mp-696174,NaH3C2O5,3.1616999999999997
mp-696283,H4S4N6O,2.2104999999999997
mp-696291,ZnH4(NO4)2,3.314
mp-743873,SrLaMnSbO6,1.8423999999999996
mp-743882,VH5Se2NO7,2.0850999999999997
mp-743906,La5MnRe3O16,0.0
mp-743916,NiH14C10(N4O)2,3.9482999999999997
mp-743941,KFeC6(NO)3,4.4460999999999995
mp-757089,LiIO4,2.1837999999999997
mp-757098,Li2Fe2S3,0.0
mp-757150,Li5BiS4,1.5608999999999997
mp-757192,SnP2O7,3.9343000000000004
mp-757202,K7(Bi3O8)3,0.0
mp-757276,Li3Ti2(PO4)3,0.0
mp-762907,Co2O3F,0.0
mp-762912,Ti3CoSn2(PO4)6,0.0
mp-762913,Li4Nb2Fe3Ni3O16,0.0
mp-762919,Mn3(OF2)2,0.0
mp-762922,Li2VO2F,1.7004000000000001
mp-762930,Li3(NiO2)5,0.22529999999999983
mp-762934,V2Fe3P6WO24,0.0
mp-765057,Li5FeNi3O8,0.0
mp-765099,Li6V3P8O29,0.0
mp-765100,Li8Mn6(FeO6)3,0.0
mp-765101,Na7(WO3)12,0.0
mp-767972,Li2Fe3NiO8,0.0
mp-767982,Li3Mn2(SiO4)2,0.0
mp-767984,Li2NiP2O7,4.366
mp-767986,Li4V2Cr3Co3O16,0.0
mp-767992,LiNi2O3,0.0
mp-767994,BaV8O16,0.0
mp-767998,Mn9CdO10,0.0
mp-768001,Li6Fe(SiO4)2,3.7361000000000004
mp-771028,Li3SiBiBO7,0.0
mp-771031,Lu2TiO5,3.2718999999999996
mp-771032,Na2CuAsCO7,0.0
mp-771059,Li4Nb2Co3Sn3O16,1.6597999999999997
mp-771061,MnFeBO4,0.0
mp-771063,Li4Fe3Ni(PO4)4,3.0439999999999996
mp-771078,Li3FeBO5,0.46430000000000005
mp-771082,Li4CrFe3O8,1.7126000000000001
mp-774089,Li5Nb2V5O12,0.0
mp-774091,MnSb3(PO4)4,0.0
mp-774104,FeNi(PO4)2,0.0
mp-774106,Li3Fe2(SiO4)2,1.5111999999999999
mp-774119,CrNi3(PO4)4,0.0
mp-774120,Hg2W2O7,1.9725000000000001
mp-774141,Li4Cr2P4H3O16,0.9188000000000001
mp-774151,VSb(PO4)2,1.9270999999999998
mp-774171,Li3Mn2(SiO4)2,0.0
mp-777902,Ti3Mn2Cu(PO4)6,0.0
mp-777903,Li4Cr2Fe3Sn3O16,0.0
mp-777926,Mn6O7F5,0.0
mp-777927,Li24TiCr11O36,0.9087000000000001
mp-777935,MnOF,0.022599999999999953
mp-777939,LiV3OF11,1.4645000000000001
mp-777942,Ba14Na8CaN6,0.0
mp-777948,Mn6O5F7,0.0
mp-777952,Na4Ni7O16,1.0171999999999999
mp-849071,Cr3S4,0.0
mp-849075,NiS2,0.0
mp-849078,Ni2S,0.0
mp-849233,Li2Mn3(BO3)3,0.0
mp-849234,Mn3OF5,0.0
mp-849238,Li2MnSiO4,2.8823999999999996
mp-600007,SiO2,5.6068999999999996
mp-600027,SiO2,5.522600000000001
mp-600041,SiO2,5.465199999999999
mp-600049,SiO2,5.646800000000001
mp-600060,SiO2,5.683199999999999
mp-625855,V3(HO2)4,0.0
mp-625873,Ba(HO2)2,2.9433000000000002
mp-625888,Ba(H2O3)2,0.0027000000000000357
mp-626074,Al(HO)3,4.614999999999999
mp-626083,Si2H2O5,5.274100000000001
mp-626136,H3ClO5,4.753299999999999
mp-626138,Mo2HO6,0.0
mp-626222,H5ClO6,4.5672999999999995
mp-626225,Ca(H8O5)2,3.5136999999999996
mp-626260,Sr(H8O5)2,3.7903000000000002
mp-626267,Ca(H8O5)2,3.8400999999999996
mp-626271,Sr(H8O5)2,3.5406999999999997
mp-654305,Tl2FeC5N6O,2.4172000000000002
mp-654327,Ba8Re2(WO8)3,0.026799999999999713
mp-654900,CuH9C4NO6,0.0
mp-655001,Li3BH6,0.874
mp-655141,S,0.8323
mp-655446,VS2,0.0
mp-656850,Ti2O7,1.1540000000000001
mp-656852,Ti13O22,0.0
mp-656884,Ni9O10,0.0
mp-657336,MgSiO3,2.4375999999999998
mp-696379,BH3OF4,7.657299999999999
mp-696776,BaAl3P2(HO7)2,0.0
mp-696794,RbHSeO4,3.6243999999999996
mp-696853,CaZnSiH2O5,3.6399999999999997
mp-696871,LaAlO3,3.581899999999999
mp-696886,KH(CN2)3,0.0
mp-696940,TiH12C2(NF)6,2.8143000000000002
mp-696990,NaPH3C2N3O4,3.6132999999999997
mp-697027,NaSi2(HO2)3,5.078799999999999
mp-697087,SbH2(NF2)3,0.11749999999999994
mp-697128,KCa2P4H11O18,5.279100000000001
mp-697179,ZrH,0.0
mp-697264,CdH2SeO4,3.7960000000000003
mp-697331,Mg2NiH4,1.5718999999999999
mp-697540,K3GeH2NO3,3.1784999999999997
mp-697558,SbH12C2N6F5,4.946
mp-697645,H13Se2N3O8,3.5427999999999997
mp-697657,CaP4(HO6)2,5.637
mp-697664,LiCr4(PO4)3,2.0696999999999997
mp-697726,Li2CoP2O7,3.0107999999999997
mp-744032,VH12C2S2(O2F)6,2.4225999999999996
mp-744181,K2Cr2AsHO10,2.6898999999999997
mp-744187,Na2Ni4Mo4(HO4)5,0.0
mp-744239,Fe5P4(H3O10)2,1.4431000000000003
mp-744260,LiLa(MoO4)2,3.7483999999999997
mp-744347,RbVH4(OF2)2,2.5427999999999997
mp-744439,MoH4O5,1.7107999999999999
mp-757324,CeZr6O14,2.152
mp-757325,Li3Ti(PO4)2,0.24429999999999996
mp-757333,Al12PbO19,4.518599999999999
mp-757375,Ti2Sn3O10,1.7265999999999995
mp-757383,LiSiBiO4,3.0934999999999997
mp-757394,LaTi6O12,0.0
mp-757399,La12Cu6O25,0.0
mp-757403,Na7Cu7O13,0.44479999999999986
mp-757428,Cd2Si(P2O7)2,3.9371000000000005
mp-757433,NaTi4O8,0.0
mp-757457,LaNb3O9,1.6302999999999999
mp-757466,Li3Si2BiO7,3.7837000000000005
mp-757479,Li2Sn(PO3)6,2.2904999999999998
mp-757490,LiSnPO4,3.3674999999999997
mp-757493,Ti11H7O24,0.0
mp-757495,Sn(PO3)4,2.9539999999999997
mp-757504,ZrTi2O6,2.6527999999999996
mp-757505,LiNbPO5,0.0
mp-757527,LiTi6O12,0.0
mp-757546,K3Ta8O21,0.0
mp-757569,LiSn(PO3)4,0.0
mp-762973,Li4V(PO3)6,2.8954999999999997
mp-762985,LiMn2(CO4)2,0.46920000000000006
mp-762988,LiMnF3,3.5949999999999998
mp-762997,FeOF,0.9122999999999999
mp-762999,Li4FeOF5,1.5509999999999997
mp-763022,FeOF,1.7182999999999997
mp-763043,Fe2OF3,1.552
mp-763049,MnOF,0.0
mp-763050,Li4Ti3Mn2Cu3O16,0.0
mp-763055,Li2Fe3Co7O20,0.0
mp-763060,LiCoPO4,2.7779999999999996
mp-763066,Li6Fe3Co7O20,0.0
mp-765120,Li2Mn2OF6,1.2127000000000001
mp-765131,Li2Mn2OF6,0.719
mp-765141,LiNiPO4,3.3137999999999996
mp-765143,Li2NiP2O7,2.6435999999999997
mp-765185,LiV2F7,2.6576999999999997
mp-765190,Cr3NiTe2(PO4)6,0.0
mp-765191,LiAgF4,0.0
mp-765202,MnCr3Te2(PO4)6,0.0
mp-765204,LiMn2F7,0.40049999999999997
mp-765206,InFe11O16,0.0
mp-768003,Na5Mn2P2(CO7)2,0.0
mp-768021,Li4Fe2TeWO12,0.0
mp-768022,LiTi4VO8,0.0
mp-768041,Li4MnCr3(PO4)4,1.9097999999999997
mp-768049,Na3Ni2P2(CO7)2,0.0
mp-768056,LiMn10O20,0.0
mp-768061,NaMnPCO7,0.9660000000000001
mp-768075,Li5Fe11O16,1.1468000000000003
mp-768078,Cr4Si4O13,1.3925000000000005
mp-768082,Na5Ni2P2(CO7)2,0.0
mp-768083,Li5La3Nb14O42,0.0
mp-771103,Li5Fe5(SbO6)2,0.0
mp-771118,Li4Co5Sb3O16,0.0
mp-771122,Na2CuBSO7,0.9652999999999999
mp-771162,Na3CuSiCO7,0.0
mp-771165,Dy2TiO5,3.1654999999999998
mp-771168,Na2SiBiCO7,0.0
mp-771180,VNi5(PO4)6,0.0
mp-771184,Cr10Fe5O24,0.0
mp-774178,Mn3Co2Te3O16,0.0
mp-774193,La2WO6,3.6540000000000004
mp-774232,Li4Cr3Ni3(SbO8)2,0.0
mp-774237,Li5Cr2Ni5O12,0.0
mp-774238,Li4Nb(FeO4)3,0.0
mp-774241,NaVAsCO7,2.0021999999999998
mp-774257,Ni3Sn(PO4)4,0.0
mp-774275,Li3Co3(Ge3O8)2,0.0
mp-774279,Li(FeO2)2,0.0
mp-774297,Li3MnV(PO4)3,0.0
mp-774299,Li8Mn5Fe3(BO3)8,2.979
mp-774303,Li6Mn5Fe(BO3)6,2.6115999999999997
mp-777955,Li2Cr(PO3)4,3.4909999999999997
mp-778013,Mn3O5F,0.0
mp-778032,LiV2(SiO4)2,1.1360999999999999
mp-778033,Mn6O5F7,0.0
mp-778036,LiCr2(PO4)3,0.0
mp-778057,Na2SnO2,2.1017000000000006
mp-778102,BaYF5,6.661499999999999
mp-778141,Sm2Pb2O7,1.0091999999999999
mp-778180,CsTi(NbCl3)6,0.0
mp-778217,Fe2Co3O10,0.0
mp-778219,Li4Cr3Co3(SnO8)2,0.0
mp-778229,Li9Cr3(WO4)7,0.0
mp-778246,Li2Mn2(PO4)3,0.0
mp-849080,VS2,0.0
mp-849254,NbCr3(PO4)6,0.0
mp-849325,SbH4NCl6,1.9250999999999998
mp-849330,Li2V2CrO6,0.0
mp-849335,Ti3N2O3,1.6496999999999997
mp-849355,LiMnP2O7,0.9064999999999999
mp-849368,V3(O2F)2,0.9243000000000001
mp-849370,Fe6OF11,1.8601999999999999
mp-849392,Li9V2P4HO18,0.40470000000000006
mp-849400,Co2OF3,0.0
mp-849410,Li2Mn3(BO3)3,0.0
mp-849412,V6O5F19,2.0450999999999997
mp-849413,Li5Mn6(BO3)6,0.0
mp-849416,Li4Fe2Cu3O10,0.0
mp-849430,Li8MnFe7(PO4)8,3.9038999999999997
mp-600167,CuH6(CO2)4,0.0
mp-600207,CuH12(C2N5)2,0.12029999999999996
mp-600208,ZrH36C16(NO4)4,3.7626999999999997
mp-600226,MnH12(C2N5)2,0.0
mp-600228,H8RuC5N(ClO)3,3.3049999999999997
mp-600369,V3H8C2NO7,1.8997000000000002
mp-601148,I,0.0
mp-601322,Ba6Ge5N2,0.0
mp-626275,Ca(H8O5)2,3.6908000000000003
mp-626279,Ca(H8O5)2,3.8912999999999998
mp-626317,Ca(H8O5)2,3.4675000000000002
mp-626481,Al(HO)3,3.8282000000000003
mp-626563,Ca(H8O5)2,3.5782999999999996
mp-626565,Ti3H2O7,2.6193999999999997
mp-626569,Ti3H2O7,2.3741999999999996
mp-626631,Al(HO)3,3.8335999999999997
mp-626664,H2W2O7,2.6048999999999998
mp-626855,Fe4H14O13,1.8694000000000002
mp-626994,Ba(HO)2,4.2448999999999995
mp-627291,V3(H3O5)2,1.5975000000000001
mp-627439,Mn3GaN,0.0
mp-662513,Te2WCl6,0.0
mp-662553,B2Pb2S5,1.6623999999999999
mp-662567,Nd12Cu6O25,0.0
mp-662810,Na5Lu(SiO3)4,3.6801999999999997
mp-667294,Ca5(PPd)6,0.0
mp-667295,Cs7Cd3Br13,2.9374000000000002
mp-667305,ReN(OF2)3,2.6212999999999997
mp-667309,Li2SeO4,0.010499999999999954
mp-667363,AlPO4,5.388999999999999
mp-667374,NaAlSiO4,4.541399999999999
mp-697733,FeP2O7,0.0
mp-697764,LiFeP2O7,2.4905999999999997
mp-697769,Mo(PO3)4,1.8630999999999998
mp-697796,Li2Cr5(PO4)4,2.3366999999999996
mp-697808,LiFe2P3O13,0.0
mp-698170,Ca2B5H2ClO10,5.228800000000001
mp-698223,Na2PH5O6,4.3816999999999995
mp-698289,BH11AuC4IN2,1.9586999999999999
mp-698349,CdH6C4(S2O)2,2.3204000000000002
mp-744637,Ba2V3P6HO22,1.9447999999999999
mp-744764,Mn7P6(HO6)4,3.2095000000000002
mp-744790,CrH10SO9,0.0
mp-744841,SiMo12H24C6N3O40,0.0
mp-744924,Na2TiCr(PO4)3,2.5204999999999997
mp-744926,Fe3P2H6O11,0.0
mp-744927,Na5CaAl5Fe(SiO3)12,3.2344999999999997
mp-744941,Na3Cr2P2O8F3,2.4581999999999997
mp-745012,Ni2P2O7,3.6029999999999998
mp-745114,Cd4NiH20(ClO)10,3.7563999999999997
mp-745120,CrH10SNO10,2.2767999999999997
mp-745134,Fe3P2(H2O3)4,3.7133000000000003
mp-757574,Ba8In8O19,1.3122000000000003
mp-757578,LiSn(PO3)4,0.0
mp-757588,Y11Ta5O28,0.37959999999999994
mp-757612,Ag7(PbO3)3,0.0
mp-757616,LiSn(PO3)4,0.0
mp-757658,LiTi(PO3)4,0.11630000000000029
mp-757663,LiSn(PO3)4,0.0
mp-757669,LiCuC2O5,1.2767999999999997
mp-757673,LiTiP2O7,0.036000000000000476
mp-757716,LiTi(Si2O5)2,0.38400000000000034
mp-757723,SrH4(SO4)3,5.865600000000001
mp-757734,LiNbPO5,0.0
mp-757800,LiCuCO3,1.5920000000000005
mp-757806,LiSn(PO3)4,0.056599999999999984
mp-757808,Sb(PO3)4,0.0
mp-757845,LiNb(PO3)4,1.0876000000000001
mp-757862,K4Nb15O24,0.0
mp-757886,NdHS3O11,5.4826999999999995
mp-757899,Li3Sn2(PO4)3,2.1750999999999996
mp-757947,Li2Sn(PO3)5,0.11250000000000027
mp-763094,Mn3OF5,0.0
mp-763097,FeOF,1.2588000000000001
mp-763123,FeOF,0.24189999999999978
mp-763128,FeOF,0.0
mp-763139,FeOF,0.25890000000000013
mp-763162,FeOF,0.0
mp-763166,FeOF,0.38439999999999985
mp-763169,V2(OF)3,1.4346999999999999
mp-765266,LiMn2F7,1.5734000000000001
mp-765277,LiSnPO4,3.2845999999999997
mp-765279,Li10CoNi9O20,0.47800000000000065
mp-765286,LiSn(PO3)4,0.0
mp-765305,LiVCrP2(O4F)2,0.9908000000000001
mp-765316,Li3Ni2(CO3)4,0.0
mp-768142,Li13Nb14ZnO42,0.0
mp-768156,Li7(SbS)2,0.0
mp-768204,Li2Fe2S3,0.0
mp-768288,Li3FeS3,0.0
mp-768320,LiLa5Ti8O24,1.9374000000000002
mp-768323,LiFe2(PO4)2,0.9889000000000001
mp-768334,LiMn2OF5,0.0
mp-768345,Ba2B2O5,3.8444000000000003
mp-768355,BaYF5,6.895099999999999
mp-768373,Ba2YBr7,3.8550999999999997
mp-768388,Lu2GeO5,3.9488999999999996
mp-768399,Ba3Y2Br12,3.7763999999999998
mp-771208,Ba5(Ga3O7)2,2.7217000000000002
mp-771211,Lu2(WO4)3,3.8813000000000004
mp-771214,Rb2S2O7,5.1057999999999995
mp-771215,Li4TiCrO6,1.2774999999999999
mp-771217,Na4Co2P(CO4)4,0.0
mp-771230,Na4Li3(FeO4)2,0.0
mp-771238,Y2TeO6,2.2226999999999997
mp-771256,Sr3(AsO4)2,3.5423999999999998
mp-771261,Mn3FeO8,0.0
mp-771275,Li4V(TeO4)3,0.0
mp-771277,Li24Ti5Cr7O36,1.1717999999999997
mp-771285,Li24Ti7Cr5O36,1.2939000000000003
mp-771286,Li24Ti7Cr5O36,1.2749000000000001
mp-771294,Li2FePCO7,2.3411999999999997
mp-774309,Li2MnV(P2O7)2,0.36339999999999995
mp-774319,Li10Ti2Fe3Ni3O16,1.553
mp-774320,Mn12O5F19,0.0
mp-774358,Li2MnV(P2O7)2,0.47119999999999984
mp-774362,Li6Mn5Fe(BO3)6,2.6041999999999996
mp-774366,Li3MnFe2(BO3)3,2.7129999999999996
mp-774374,Na3FeO4,0.41080000000000005
mp-774396,Li8Mn5Fe3(BO3)8,0.0
mp-778274,Dy5Ti5O17,0.0
mp-778306,Na4Fe2C4SO16,0.43179999999999996
mp-778307,Li2MnFe(PO4)2,3.6405999999999996
mp-778316,Li4VTe(WO6)2,1.658
mp-778332,Na5Cr2P(CO4)4,0.12509999999999977
mp-778356,Na8V2O7,0.44209999999999994
mp-778397,Li2Sn(BO3)2,3.0463999999999998
mp-778451,Na6Sn2O7,1.9620000000000002
mp-849448,Li2Fe2CuO6,0.0
mp-849457,Li3Ni(SbO3)4,0.0
mp-849472,Li5Co7O3F13,1.924
mp-849474,Li2Mn5(CuO6)2,0.06130000000000013
mp-849479,Mn6O7F5,0.0
mp-849485,Mn12O7F17,0.0
mp-849498,Li5Mn6(BO3)6,0.0
mp-849503,Li5Mn6(BO3)6,0.0
mp-849508,Li5Mn6(BO3)6,0.0
mp-849516,Li4Mn5(CuO6)2,0.0
mp-849517,Mn6O5F7,0.472
mp-849520,LiCo3(SiO4)2,0.0052000000000000934
mp-849522,Li8V3P8O29,1.0229000000000001
mp-849545,Mn12O7F17,0.39349999999999996
mp-601774,H14C4NF3,7.115600000000001
mp-601924,BiH24C6(I2N)3,2.7822999999999998
mp-603910,ZnH14C2(N2Cl)4,3.9837000000000002
mp-604313,Li,0.0
mp-604440,K2NaV5H10O19,2.4848999999999997
mp-604453,CeBiPd,0.0
mp-604459,Li2B4H4O9,5.1171999999999995
mp-605461,K3UH6C5SNO13,1.6804999999999999
mp-605665,H24RuC8(S2Cl)2,2.3670999999999998
mp-605694,NdH12S2NO12,5.1190999999999995
mp-605790,Ba,0.0
mp-607223,Np3In,0.0
mp-607267,KPb2Cl5,3.6136999999999997
mp-607829,AlTlI4,3.4463999999999997
mp-607931,Cs3NaLi2(BO3)2,3.4539999999999997
mp-608243,Co5Te4Cl4O11,2.4393000000000002
mp-608653,As2Pb2S5,1.6038000000000001
mp-613384,CsIO3,0.0
mp-613402,SrZrO3,0.0
mp-614455,GdCu,0.0
mp-644246,EuH3Pd,0.0
mp-645425,Pr7C3I10,0.012199999999999989
mp-646538,CaCo2Te3(ClO4)2,2.6008999999999998
mp-648140,Na2Al2S3(Cl4O3)2,2.5887000000000002
mp-648363,SbP3C(NCl5)3,0.46430000000000005
mp-648414,V2PS10,1.1097000000000001
mp-648469,SbP2SN3Cl10,1.8197999999999999
mp-649632,KCo(CO)4,3.7260999999999997
mp-652229,Co4Ge(CO)13,1.958
mp-652337,Fe3Te2(CO)9,1.7140999999999997
mp-652353,PC2S2N3,3.2539000000000002
mp-652366,MoPb5O8,2.4221999999999997
mp-652402,Mn2Pt(CO)12,1.7915999999999999
mp-652407,Ru(CO)4,2.5854999999999997
mp-652479,LiZnPO4,4.1895999999999995
mp-652663,K2PtS15,1.9164999999999999
mp-667383,SiO2,5.5085999999999995
mp-695582,Na3Sr4La3Ti10O30,1.9423999999999997
mp-695592,Ca10Al6Si13N30,1.8136999999999999
mp-695694,KH18OsN6(ClO2)4,0.9833999999999999
mp-698414,CuH8C2NCl3,0.20359999999999998
mp-698457,NaLiH4C2O5,4.616300000000001
mp-698567,Cr(Bi7O12)2,2.018
mp-698587,TiNiO3,1.7081999999999997
mp-698623,K4W11O35,0.0
mp-698722,Ca5Yb3Ti5Mn3O24,0.42779999999999996
mp-699266,K2MgH8(SO6)2,5.175999999999999
mp-699447,RbLiH4S2(NO3)2,5.2524999999999995
mp-699647,Mn2SnC9ClO9,2.3249999999999997
mp-699914,Mn2PC11SO8F9,3.1308000000000002
mp-704101,Mn4C15S4O15,1.9025999999999998
mp-704198,LiMo2P3O13,2.2626999999999997
mp-704204,Li2MoP4O13,1.8692000000000002
mp-704206,Fe9(PO4)8,1.6058000000000001
mp-704210,Mo(PO4)2,1.7411999999999999
mp-704459,Na2Cr2O7,2.5252999999999997
mp-705614,Sr5Fe3F19,3.1250999999999998
mp-705619,Cr2Bi28O47,1.1680000000000001
mp-705632,Ti3Fe7O15,1.1238000000000001
mp-705749,Fe14Ni11O32,0.0
mp-753657,TiOF,0.0
mp-753890,Ni2H,0.0
mp-753921,Sb11S18,0.0
mp-754046,PrTlO3,0.0
mp-754197,NdO,0.0
mp-754333,TiO,0.0
mp-754388,BaSrI4,3.2802000000000002
mp-754514,N2,0.0
mp-754524,CeTiO3,0.0
mp-754678,BaTaO3,0.0
mp-754696,PrTiO3,0.0
mp-754824,SrO,2.5643000000000002
mp-754912,LiCuO2,0.0
mp-757974,LiSn(PO3)4,0.0
mp-761470,Li2Mn2Si5O13,3.2859999999999996
mp-761504,V5W3O20,1.1635999999999997
mp-761607,Li2Si6Ni3O16,3.4109999999999996
mp-761643,Li6Ni3P6WO24,2.1898999999999997
mp-761648,LiNi(PO3)3,2.9939999999999998
mp-761723,Li2Si4Ni4O13,3.4440999999999997
mp-761731,K2Li2CoO4,0.35619999999999996
mp-761746,LiCo2(PO4)3,0.0
mp-762527,LiFe4(PO4)3,2.9844999999999997
mp-762538,Mn13Fe11O32,0.49960000000000004
mp-763179,FeOF,1.5710999999999997
mp-764508,LiFe2(BO3)2,1.7331999999999999
mp-764513,Li3Fe8(BO3)8,1.6683999999999999
mp-764525,Li3Fe8(BO3)8,1.3699999999999999
mp-764528,Li5Fe8(BO3)8,1.471
mp-764536,LiFe4(BO3)4,1.5152999999999999
mp-764542,Li5Fe8(BO3)8,1.2874999999999999
mp-764550,LiFe2(BO3)2,1.2590999999999999
mp-764591,Li3Fe8(BO3)8,1.6831000000000003
mp-764630,Cr3(CuO6)2,0.11769999999999992
mp-764654,Li5Fe8(BO3)8,1.3898000000000001
mp-764678,LiFe2(BO3)2,1.8209000000000002
mp-764688,Li4CoO4,0.0
mp-764702,LiFe2(BO3)2,1.5956000000000001
mp-764703,Li3Fe4(BO3)4,1.5781000000000003
mp-764714,Li3Fe4(BO3)4,1.6829000000000003
mp-764732,LiCo2(PO4)3,0.0
mp-764749,LiFe2(BO3)2,1.5430000000000001
mp-765351,Li2Sn4P4O15,2.8943999999999996
mp-765491,Ti4(Fe2O5)3,1.3827000000000003
mp-767862,MnCu4H14(SO9)2,0.0
mp-767881,Li3MnPCO7,3.4172000000000002
mp-767883,Li3NiPCO7,3.1008999999999998
mp-767891,Li2Si4NiO10,3.9366000000000003
mp-767911,Li3CoPCO7,2.297
mp-767928,Li3CoPCO7,2.2664999999999997
mp-767949,Li3Fe4(PO4)6,0.0
mp-768457,Sb2(SO4)3,3.6256000000000004