task_id,pretty_formula,band_gap
mp-9366,RbHoS2,2.3355000000000006
mp-9369,RbYbS2,0.0
mp-9381,Zr6FeTe2,0.0
mp-9382,SrZrN2,0.23580000000000023
mp-9385,RbAu3Se2,1.7326000000000001
mp-9394,U2Cr3Si,0.0
mp-9398,V4SiSb2,0.0
mp-9416,La(CuO2)2,0.0
mp-9417,Sm(CuO2)2,0.0
mp-9418,Eu(CuO2)2,0.0
mp-9420,Dy(CuO2)2,0.0
mp-9421,Ho(CuO2)2,0.0
mp-943,Co3S4,0.0
mp-9439,YbCuSb,0.0
mp-9441,Ho(CrGe)6,0.0
mp-9463,ZrGeSb,0.0
mp-969,YbAl2,0.0
mp-9721,Ca3GeO,0.0
mp-972931,EuMgO3,0.0
mp-972978,ScVO3,0.0
mp-972985,KPdO3,0.0
mp-972987,Mn3Tl,0.0
mp-973004,ScRu3,0.0
mp-973024,La3Hf,0.0
mp-973055,Hg3Au,0.0
mp-973064,LaH3,0.47189999999999976
mp-973068,ScCuO3,0.0
mp-973111,In,0.0
mp-973266,Lu3Al,0.0
mp-973295,Mg5Hg,0.0
mp-973316,NaLi3,0.0
mp-973320,MgIn3,0.0
mp-973334,NaMg,0.0
mp-973339,Lu3Th,0.0
mp-973352,NaCo3,0.0
mp-973372,MgIn5,0.0
mp-973374,LiMg2,0.0
mp-973415,LiLa3,0.0
mp-973464,LaEr3,0.0
mp-973465,Ho3In,0.0
mp-973493,LiLu3,0.0
mp-973498,In3Au,0.0
mp-973539,LuAl3,0.0
mp-973545,Ga3Te,0.0
mp-973592,Ho2Ge2O5,0.0
mp-973599,Hg3As,0.0
mp-973601,HgI3,0.0
mp-973615,LuSb3,0.0
mp-973622,K3Sr,0.0
mp-973626,Hg3Au,0.0
mp-973629,LuAlPd,0.0
mp-973634,Ho(AlC)3,0.0
mp-973750,LuTe2,0.0
mp-974386,Rh3F,0.0
mp-974627,K3Tl,0.0
mp-974729,Nd(Al2Cu)4,0.0
mp-974758,Rb3Tl,0.0
mp-979964,YbH2ClO2,0.0
mp-979966,Yb2Cr2C3,0.0
mp-979983,Cs3Yb,0.0
mp-980004,SmGa2Co,0.0
mp-9801,HfCoAs,0.0
mp-980195,Tm6Al7Cu16,0.0
mp-980205,YB4Os,0.0
mp-980757,Sm5Sb3,0.0
mp-980760,SmNiGe2,0.0
mp-980769,SmCu,0.0
mp-980937,Tb2Co12P7,0.0
mp-980938,Tb3Al2,0.0
mp-981211,ZnIn3,0.0
mp-981252,YMg5,0.0
mp-981748,TbAg3,0.0
mp-981808,Sm2As2O5,0.0
mp-9819,RbAsF6,5.0687999999999995
mp-981935,Li5Mg,0.0
mp-982004,SmInPd,0.0
mp-983407,HPd3,0.0
mp-984629,Cr3CdTe4,0.0
mp-984703,CeGe5,0.0
mp-984711,Cr3Cu,0.0
mp-984717,BeNi3,0.0
mp-984719,BeAg3,0.0
mp-984723,DyAlO3,2.947399999999999
mp-984727,Ce3Br,0.0
mp-984728,BC,0.0
mp-984745,CsSnO3,0.0
mp-984756,CsMgO3,0.0
mp-985,TmCu,0.0
mp-985282,Ag3Ge,0.0
mvc-11008,Ba2Fe3O8,0.0
mvc-12139,Y2Cr3O9,0.0
mvc-14187,Y2Sb2O7,0.0
mvc-14545,CaLa2SbO6,0.0
mp-1009731,ReC,0.0
mp-10143,TiB,0.0
mp-1019740,GaB3N4,3.7109000000000005
mp-1029960,CsRuN2,0.0
mp-1039454,Ca3Zn,0.0
mp-1039528,CaMg2,0.0
mp-1042479,BaYCuWO5,0.0
mp-1057818,O2,0.0
mp-1060435,TiH,0.0
mp-1078394,Ba2LuBiO6,1.4445000000000001
mp-1079236,ReTc(PbO3)2,0.0
mp-1079544,KTl,0.0
mp-1079783,EuAl,0.0
mp-1094388,MgTi,0.0
mp-1096875,CrAgO2,1.1139999999999999
mp-1099109,CaMg6Ni,0.0
mp-1099306,CsMg6Co,0.0
mp-1099331,CeMg6Bi,0.0
mp-110,Mg,0.0
mp-1147524,Ba4Cu3IO12,0.0
mp-1169,ScCu,0.0
mp-1172,MgRh,0.0
mp-1187498,Tl3Zn,0.0
mp-1188029,Zr3Cd,0.0
mp-1200584,La3Zn22,0.0
mp-1209176,RhN7ClO6,0.0
mp-1219,BaGa2,0.0
mp-1226170,CrRh,0.0
mp-13841,IrF4,0.0
mp-13934,Ba2TmReO6,0.0
mp-20,Be,0.0
mp-20712,EuGe,0.0
mp-21347,CoBMo,0.0
mp-23037,CsPbCl3,2.1891999999999996
mp-2314,LiPb,0.0
mp-32684,HBr,4.486000000000001
mp-5019,YCo3B2,0.0
mp-542136,Na3PSO3,3.8960999999999997
mp-555569,Cr2S3,0.0
mp-559893,LiBi(PdO2)2,0.44599999999999973
mp-567116,YbRu,0.0
mp-570009,Np(MnSi)2,0.0
mp-605853,Li4CO4,5.5672999999999995
mp-625488,Zn(HO)2,2.4945999999999997
mp-631498,BaMgOs2,0.0
mp-642999,TmH3(CO2)3,3.9339000000000004
mp-651175,CeSiNO2,0.0
mp-6520,Ba3MgRu2O9,0.0
mp-652534,Mn3Cu3O8,0.0
mp-6685,Cr4FeCuS8,0.0
mp-669431,EuBi2BrO4,0.0
mp-669573,EuBi2IO4,0.36990000000000034
mp-669649,Yb6Fe23,0.0
mp-672215,Gd(PRu)2,0.0
mp-672235,Co(NiS2)2,0.0
mp-672254,CaPdPb,0.0
mp-672257,Tm2Ga8Fe,0.0
mp-672670,Dy5Mg24,0.0
mp-672702,UInNi4,0.0
mp-675410,Ba2U2O3,0.0
mp-675446,NaRuO2,0.10020000000000007
mp-675510,As4Pd5Pb,0.0
mp-675545,TaHg2F6,0.0
mp-684027,Mg3(MnAl9)2,0.0
mp-684031,Mg3(TiAl9)2,0.0
mp-684728,Ba2Tm2Al3Si5N11O3,0.0
mp-684744,Fe2N,0.0
mp-6854,Cs2LiMn(CN)6,0.0
mp-687096,V2Cu2O7,0.026000000000000023
mp-687212,Cr(PO3)4,0.0025000000000000577
mp-6910,BaPrO3,0.0
mp-691129,V5N4O,0.0
mp-698578,Fe21O32,0.0
mp-698640,La7Mn8O24,0.0
mp-703283,Sr2La2Mg(RuO4)3,0.0
mp-703521,Na5P3(H3O4)4,4.726999999999999
mp-704097,Sr6Co4Bi2O15,0.0
mp-7095,CeCoSi2,0.0
mp-711,CeGa6,0.0
mp-7124,TbSiPt,0.0
mp-7126,TiSnSb,0.0
mp-714,SrSn4,0.0
mp-7298,Li(CuP)2,0.0
mp-7322,CsU2O6,0.0051000000000005485
mp-7348,Sr(BRh)2,0.0
mp-7349,Ba(BRh)2,0.0
mp-7350,Li(YSi)2,0.0
mp-7359,BaAgAs,0.0
mp-7361,Sr(CoGe)2,0.0
mp-7363,Sr(ZnGe)2,0.0
mp-7364,Ca(SiAu)2,0.0
mp-7365,Sr(SiAu)2,0.0
mp-7366,Sr(AgSn)2,0.0
mp-738,Sb2Au,0.0
mp-739,TiP,0.0
mp-7400,NaAlGe,0.0
mp-7420,KHgAs,0.0
mp-7422,Ca(CuP)2,0.0
mp-7424,BPd2,0.0
mp-7426,Ba(ZnP)2,0.0
mp-7430,Ca(CdSb)2,0.10569999999999968
mp-7431,Sr(ZnSb)2,0.0
mp-7432,Sr(CdSb)2,0.0
mp-7433,NaCuSe,0.051200000000000134
mp-754344,LiZnO2,0.0
mp-7555,LiMgSnPd,0.0
mp-755572,EuNbO3,0.0
mp-759066,LiAgF3,0.0
mp-7634,Cu3As,0.0
mp-763417,Co3OF5,0.0
mp-764309,VOF,1.6543999999999999
mp-764934,Na(NiO2)2,0.0
mp-764935,Li(CoO2)2,0.0
mp-764936,Li8(FeO2)5,0.0
mp-764942,Li5Mn2Co5O12,0.26639999999999997
mp-764945,LiCoSiO4,0.34760000000000013
mp-764947,RbV4O10,0.0
mp-764953,Li7Ni(O2F)2,1.553
mp-765061,Li2VFeP2(HO5)2,1.4969000000000001
mp-765086,Li5V3P8O29,0.0
mp-767715,Li34(Sb3S2)3,0.0
mp-767719,Li4Ti2Mn3Ni3O16,0.014699999999999935
mp-767723,LiV2F9,1.8537000000000001
mp-768328,La11Mn12O36,0.0
mp-768467,Bi2(SO4)3,3.4488999999999996
mp-768756,Li2Bi(BO2)5,3.5900999999999996
mp-768757,LiCu2(SO4)3,0.0
mp-769801,Li2AlCoO4,1.6912000000000003
mp-771612,LiFeO3,0.0
mp-771613,LiNiSnO4,0.34620000000000006
mp-771615,Li2TiVO4,0.0
mp-771620,Li3Fe3O8,0.0
mp-771621,Li3Fe3O8,0.0
mp-771628,LiVCuO4,0.0
mp-771635,Li2NbVO4,0.0
mp-771655,Li3V2CrO6,1.8865999999999996
mp-771664,Li2VNiO4,1.7008999999999999
mp-771666,Li3Ni2SbO6,1.2584999999999997
mp-771675,Li2MnVO4,0.0
mp-7723,NaAlF4,5.776199999999999
mp-775762,AgPO3,2.1167999999999996
mp-775922,SrNb3NO7,1.5305999999999997
mp-780743,Li3Cr2(NiO4)2,0.0
mp-780745,Co3OF5,1.1725999999999999
mp-780750,LiMnSiO4,0.0
mp-780786,Na6Fe2P(CO4)4,0.0
mp-780808,Li2V3TeO8,0.0
mp-780809,Li3Cu(NiO3)2,0.0
mp-7814,Ta2CS2,0.0
mp-7817,YB12,0.0
mp-7818,Pd4Se,0.0
mp-782716,Mn6O11F,0.0
mp-782718,Mn6O5F7,0.0
mp-783903,Li2Fe3NiO8,0.0
mp-8119,PrCuSi,0.0
mp-8121,SmCuSi,0.0
mp-8127,K2Mg(CO3)2,4.0485999999999995
mp-8136,ThSO,1.1139999999999999
mp-8137,NpSO,0.0
mp-8146,SrPuO4,0.0
mp-8150,Ba(CdSb)2,0.0
mp-8159,TlCu4S3,0.0
mp-8182,As3Rh,0.0
mp-8189,LiReO3,0.0
mp-8308,Ca3Ni7B2,0.0
mp-850492,LiMn(Si2O5)2,2.6047000000000002
mp-850952,Li2Mn3(BO3)3,0.03479999999999994
mp-853146,Li4VCr3O8,0.0
mp-855,MgBe13,0.0
mp-861657,Li2PrAl,0.0
mp-862366,Sc2TlAg,0.0
mp-862919,PmInHg2,0.0
mp-862964,PmSmMg2,0.0
mp-863667,Er2TlAg,0.0
mp-864640,Ta2NbIr,0.0
mp-864961,Be2PdPt,0.0
mp-865178,Hf2IrRh,0.0
mp-866045,CeYMg2,0.0
mp-866047,NaEuTl2,0.0
mp-867882,SmCdAu2,0.0
mp-867887,Sm2CuIr,0.0
mp-867916,ScGaIr2,0.0
mp-867917,CuGeRh2,0.0
mp-8743,HoCoSi2,0.0
mp-8969,Mg2Ni3P,0.0
mp-8994,Rb2NbF6,0.21979999999999977
mp-8996,Sc3RuC4,0.0
mp-9023,ScSiAu,0.0
mp-9024,LuSiAu,0.0
mp-9025,YSiAu,0.0
mp-9033,Np(SiOs)2,0.0
mp-9042,Np(SiPd)2,0.0
mp-9056,ZrPdF6,0.9909000000000001
mp-9078,BaPIr,0.0
mp-9090,CsYbS2,0.0
mp-9125,Ca(SbO3)2,2.6942999999999997
mp-9210,La(PdO2)2,0.0
mp-9219,LaB2Pt2C,0.0
mp-9223,ScGeRu,0.0
mp-9235,LaNiSb,0.0
mp-9241,HoCoC2,0.0
mp-9245,LiGaPdF6,0.9339999999999999
mp-9257,Yb(CdSb)2,0.09539999999999971
mp-9264,NaTeAu,0.0
mp-931,ThP,0.0
mp-9312,PrNiC2,0.0
mp-971631,GaP,0.0
mp-971648,GaP,0.0
mp-971700,ZnAuO3,0.0
mp-971704,ZnBO3,0.0
mp-971706,ZnBiO3,0.0
mp-971720,ZnGa3,0.0
mp-971733,ZnGaO3,0.0
mp-971753,ZnGe3,0.0
mp-971758,ZnNi3,0.0
mp-971761,ZnSi3,0.0
mp-971911,ZnN,0.0
mp-973053,ScH3,0.0
mp-973056,Na2CdHg,0.0
mp-973155,Ge3C,0.0
mp-973157,Ge3P,0.0
mp-973165,Lu3U,0.0
mp-973166,NaCd3,0.0
mp-973175,ScBi3,0.0
mp-973199,Sb3Pb,0.0
mp-973250,KLa3,0.0
mp-974452,Re3C,0.0
mp-974708,NdTmTl2,0.0
mp-978532,CuSiRh2,0.0
mp-978919,Ba3Tb,0.0
mp-978991,TmMg5,0.0
mp-978992,SnH4,0.0
mp-979046,Tm2Co12P7,0.0
mp-979260,Sc6Ga16Ru7,0.0
mp-9793,Ba3BAsO3,1.5213999999999999
mp-979459,Sm5Mg,0.0
mp-979911,Y2Au,0.0
mp-979912,Yb5Sn3,0.0
mp-979948,SmNiB4,0.0
mp-980944,Yb3Y,0.0
mp-981207,Yb3In3Ge2Au,0.0
mp-981210,Tl3V,0.0
mp-981214,SrMg5,0.0
mp-981310,Tl3Ge,0.0
mp-981356,Zr(FeGe)6,0.0
mp-981364,YbSm3,0.0
mp-981375,HfMg3,0.0
mp-981382,MgHg5,0.0
mp-981383,ScSn3,0.0
mp-981385,Sc3P,0.0
mp-981544,Pr,0.0
mp-981549,Y3Th,0.0
mp-981563,YbPm3,0.0
mp-981699,SmZnIn,0.0
mp-984051,CsGeO3,0.0
mp-984357,CsKO3,0.0
mp-984454,KTlO3,0.0
mp-984518,Ga3Cu,0.0
mp-984552,BeZnO3,0.0
mp-984553,BOsO3,0.0
mp-984554,BPbO3,0.0
mp-984628,CaBO3,0.0
mp-984632,CaBeO3,0.0
mp-984695,PmY,0.0
mp-984700,CeY3,0.0
mvc-11636,Y(NiO2)2,0.0
mvc-11739,Ca(TiS2)4,0.0
mvc-11740,Ca(VS2)4,0.0
mvc-11741,Ca(MnS2)4,0.0
mvc-11742,Zn(FeS2)4,0.0
mvc-11744,Ca(TiS2)4,0.0
mvc-11745,Zn(CrS2)4,0.0
mvc-11795,Al2(CuSe2)3,0.0
mvc-11834,BaTlCuO4,0.0
mvc-11839,Al(CuSe2)3,0.0
mvc-11852,Ba2CaTl2(CuO3)4,0.0
mvc-11970,V2ZnO5,1.9831999999999999
mvc-11982,CaCr2O5,0.0
mvc-11993,FeO2,0.0
mvc-11999,FeO2,0.0
mvc-12031,MgFe2O5,0.0
mvc-12054,CaFe2O5,0.0
mvc-12082,Pr(FeO3)2,0.0
mvc-12117,Mg(CoO2)2,1.9704999999999995
mvc-12148,MgNi2O5,0.20240000000000036
mvc-12170,CoO2,0.14439999999999997
mvc-12227,Mn3Nb2O9,0.44419999999999993
mvc-12340,Mn4ZnS8,0.0
mvc-12347,Zn(CrS2)4,0.0
mvc-12566,ZnNi2O5,0.0
mvc-12616,Zn(NiO2)2,0.0
mvc-12617,Ca(NiO2)4,0.0
mvc-12658,Zn(NiO2)2,0.0
mvc-12731,Ti4ZnS8,0.0
mvc-12771,MgV2O6,2.3411999999999997
mvc-12789,ScMo3O8,0.0
mvc-12903,Pr(CoO3)2,0.0
mvc-12948,Zn(FeS2)4,0.0
mvc-12951,Mn4ZnS8,0.0
mvc-12953,Mg(FeS2)4,0.0
mvc-13032,Ba2Cu2HgO6,0.0
mvc-13047,Ba2CaTl2(CuO3)4,0.0
mvc-13339,YCr2O4,0.0
mvc-13376,Ca(FeS2)4,0.0
mvc-134,ZnFe2S5,0.0
mvc-13425,Mg2V3O8,0.9805999999999999
mvc-13438,Mg2NiN2,0.0
mvc-13441,ZnSnO3,1.9182999999999995
mvc-13455,MoN2,0.0
mvc-13490,Bi2O5,0.0
mp-1178384,Eu2NiO4,0.0
mp-1183227,AgAu,0.0
mp-1183631,CdBO3,0.0
mp-1183656,CdH,0.0
mp-1183922,CsNdO3,0.0
mp-1184162,ErIrO3,0.0
mp-1186037,Na3Fe,0.0
mp-1186345,NiPdO3,0.0
mp-1186349,NpSiO3,0.0
mp-1186633,PmSm3,0.0
mp-1187104,Sr3Cu,0.0
mp-1208972,Sr2EuCu2(BiO4)2,0.0
mp-1226786,Ce2ZrO6,1.9323000000000006
mp-1227393,BaTb2Mn2O7,0.0
mp-1232325,BaNaCuClO2,0.0
mp-1238866,LuBC,0.0
mp-165,Si,0.45169999999999977
mp-20269,MnGaPt,0.0
mp-20438,PuTe,0.0
mp-24946,CaFeO2,0.04020000000000046
mp-27769,V3AsC,0.0
mp-30530,TlClO4,4.5706999999999995
mp-34467,Zn(GaS2)2,1.8921999999999999
mp-35005,Na3(WO3)4,0.0
mp-546794,SiO2,5.703399999999999
mp-557806,Er2Tc2O7,0.0
mp-569630,NdOs2,0.0
mp-639863,CeGaPd2,0.0
mp-640040,Mn4Nb2O9,1.8273000000000001
mp-640089,CeCd11,0.0
mp-640312,K4In3Ge20,0.0
mp-640315,Y(Zn10Ru)2,0.0
mp-640321,CsNa2Ge17,0.0
mp-640370,CeZn11,0.0
mp-640391,Tm5NiPb3,0.0
mp-640444,Tb5NiPb3,0.0
mp-640551,Ba4Si23,0.0
mp-640597,Ce3(AgGe)4,0.0
mp-640776,Ce4Sn25Pt12,0.0
mp-641069,Pr5NiPb3,0.0
mp-641775,Sr19In8N7,0.0
mp-642322,Sr11In7,0.0
mp-642418,Sr11In3Ga4,0.0
mp-642653,BaH2O3,0.0
mp-642654,SrH2O3,0.0
mp-642737,Cu2H3ClO3,0.0
mp-643092,U(GaFe)6,0.0
mp-643271,Gd(Al10Cr)2,0.0
mp-644118,H5N2Cl,0.0
mp-645157,Dy3Fe5O12,1.8666999999999998
mp-645286,Gd(Co2B)6,0.0
mp-645300,Rb4CO4,0.0
mp-646522,NiBiO3,0.0
mp-647363,La21Fe8Bi7C12,0.0
mp-647805,Ce21Fe8Bi7C12,0.0
mp-648086,GdGa2Co,0.0
mp-6533,NaLu(Pd3O4)2,0.0
mp-656144,BaEuFe2O5,0.0
mp-6562,Ba2CuHgO4,0.0
mp-663,NdGe,0.0
mp-6646,HoNi2B2C,0.0
mp-675111,CeAgP2,0.0
mp-675137,Cu4Sn7S16,0.0
mp-675238,Na3Ce5Cl18,0.0
mp-675301,Na(NO)2,0.0
mp-675320,Ta2CuO6,0.0
mp-675336,Pr10US16,0.0
mp-675354,Li3(RuO3)2,0.0
mp-675371,InAgTe2,0.0
mp-675379,Li2Ta2O3,0.0
mp-675391,Tl2Fe3Se4,0.0
mp-675396,Sm3Eu3S8,0.0
mp-677061,Cs3MoC6(SN2)3,0.0
mp-677135,Li2CoCl4,0.0
mp-677548,Na(NO2)2,0.0
mp-6778,BaYbSi4N7,0.0
mp-6779,Ba2Pr(CuO2)4,0.0
mp-6789,Ba2Y(CuO2)4,0.0
mp-679,Er2O3,3.9629000000000003
mp-6790,Ba2Y(CuO2)4,0.0
mp-680545,In4Au9,0.0
mp-680654,Sr3Rh4Pb13,0.0
mp-683897,Pr3Sn13Rh4,0.0
mp-683917,In4Cu9,0.0
mp-684903,V2N,0.0
mp-686330,Ba10Mg3ZrTa6O30,0.0
mp-686427,PuSi6H54(C6N)3,0.0
mp-686947,EuMoO4F,0.06409999999999993
mp-689834,NiP2O7,0.0
mp-697820,BaLaMnInO6,0.0
mp-697833,SrLaFeRuO6,0.0
mp-697925,Na5YbH4(C2O7)2,0.0
mp-6999,ScPS4,1.9419999999999997
mp-700156,Eu4Mo4O11,0.0
mp-703272,K5NO4,0.0
mp-7068,Sr3(AlSi)2,0.0
mp-7085,Tm2FeC4,0.0
mp-722,Pr3Se4,0.0
mp-7228,ReO2,0.0
mp-7232,Cs2HgO2,2.0688999999999997
mp-7241,Ho2InPd2,0.0
mp-7247,CeZn3Cu2,0.0
mp-7275,BaSi2,0.0
mp-757215,Gd5(AsO6)2,0.0
mp-757219,LiSiBiO4,3.3301999999999996
mp-757915,LiAgF3,0.30920000000000014
mp-758051,Mg7Cu17O24,0.0
mp-758325,Li2CuSiO4,0.0
mp-762411,LiMn3O6,0.9631000000000003
mp-762473,TaCrO4,1.9662000000000002
mp-762507,Li2CrNiO4,0.0
mp-762583,Li3MnNi3O8,0.0
mp-764889,Li9Fe5O12,0.27900000000000036
mp-764913,Mn2O3F,0.0
mp-764918,Mn2Fe3Ni(PO4)6,0.0
mp-764919,Co3(O2F)2,0.0
mp-764933,Li10Mn2Fe3Ni3O16,0.43179999999999996
mp-765080,Li5V3P8O29,0.29280000000000006
mp-767665,Li2Mn3(FeO4)3,0.10449999999999982
mp-767669,Li3Mn3(FeO5)2,0.9265000000000001
mp-767670,Li4Mn3(FeO5)2,0.41159999999999997
mp-767672,LiVF5,1.9139000000000002
mp-767680,Li4Mn3Fe3(CoO8)2,0.0
mp-767681,Li8Cr(FeO4)3,0.0
mp-767687,Li4Si2NiO7,3.4341999999999997
mp-768079,Li7(NiO2)11,0.0
mp-768086,Na3Mn2P2(CO7)2,0.0
mp-768091,Li4Ni7O11,0.0
mp-768100,Li4Ti3Mn4Cr2O18,0.43069999999999986
mp-768553,Li3Cu2(SO4)3,0.0
mp-768654,Cr7Ni20Mo3,0.0
mp-771464,MnCo5O12,0.0
mp-771471,Mn3TeO8,0.0
mp-771472,Mn4CuO8,0.0
mp-771481,Li(CoO2)2,0.0
mp-771495,Na6Co2As(CO4)4,0.0
mp-7715,AgF2,0.0
mp-771507,Li(FeO2)2,0.0
mp-771528,Li3Ti2MnO6,0.0
mp-771534,Li2Cr3O6,0.0
mp-771549,Li2Ti3VO8,0.25680000000000014
mp-7754,Si2Ru,0.0
mp-775685,V3Fe2Ni(PO4)6,0.0
mp-775686,Li4Fe3Ni3(SnO8)2,0.0
mp-775690,Li4Cr3Ni3(SnO8)2,0.0
mp-775698,Li4Cr2Fe3Co3O16,0.0
mp-775700,Li4Ti3Nb2V3O16,0.0
mp-775701,Li4Fe2Co3Ni3O16,0.0
mp-775702,Li4Cr2Co3Sn3O16,0.0
mp-775703,Li4Cr3Cu3(WO8)2,0.0
mp-775706,Ti3VSb2(PO4)6,0.0
mp-775713,NbNi3(PO4)4,0.0
mp-775717,Li4Fe2Co3Sn3O16,0.0
mp-775737,LiNi9O10,0.0
mp-775739,LiMn28O56,0.0
mp-775939,YNb2NO5,2.5296999999999996
mp-780215,LiVNiO4,3.0039999999999996
mp-780226,Li3LaO3,3.8721999999999994
mp-780229,Na6Bi2B4PO16,0.0
mp-780239,Na6Sn2B4SO16,3.4322999999999997
mp-780547,Fe3O5F,0.0
mp-780550,Fe3O5F,0.0
mp-780560,Mn3O5F,0.0
mp-780565,Na6Cu2C4SO16,0.0
mp-780628,Na6Cr2B4PO16,0.0
mp-780811,NbVO4,0.0
mp-782663,Co3OF5,0.0
mp-782669,Mn4O7F,0.0
mp-782676,Li2Fe3CuO8,0.0
mp-782686,Mn6O11F,0.0
mp-850897,Mn8O13F3,0.0
mp-850994,LiMn2(BO3)2,0.0
mp-851001,Li3Mn2Cr2O8,0.0
mp-8689,V4GeSe8,0.0
mp-8758,SmRhC2,0.0
mp-877,Er2In,0.0
mp-8780,Cr2N,0.0
mp-8786,Zr2NiAs2,0.0
mp-8787,Ho2NiAs2,0.0
mp-8790,Ba2CuO3,0.0
mp-882,Ti6O,0.0
mp-8832,Tb(CrSi)2,0.0
mp-8858,RbCuF3,0.0
mp-8864,Li(Co3P2)2,0.0
mp-8876,Ca4Al6SO12,3.7266999999999997
mp-889,Cr3B4,0.0
mp-8949,NdAsPd,0.0
mp-8950,NdAsPd,0.0
mp-8951,SmAsPd,0.0
mp-8953,YbAsPd,0.0
mp-8962,Rb2HgF4,1.9382000000000001
mp-965,TbB2,0.0
mp-977395,YbFeB4,0.0
mp-977428,YbAl2Cu,0.0
mp-978016,LaSn2Pd,0.0
mp-978091,Pr2Fe17C3,0.0
mp-978092,PrCuGe2,0.0
mp-978098,HoMnB4,0.0
mp-978259,Mg2As,0.0
mp-978274,MgCd,0.0
mp-978542,SmErIn2,0.0
mp-978568,Si3MoPt2,0.0
mp-978640,Sm(Mo3S4)2,0.0
mp-979614,Sm3Er,0.0
mp-979714,Sm3Ag,0.0
mp-979899,Sm3Ho,0.0
mp-9799,Yb4As2O,0.9593000000000003
mp-979900,TmAs3,0.0
mp-979923,SmMn3,0.0
mp-979924,Dy3Y,0.0
mp-979933,Tm3Si,0.0
mp-979951,Yb3U,0.0
mp-979952,Yb3Ti,0.0
mp-979953,Yb3Ta,0.0
mp-979973,Sm3Tm,0.0
mp-979980,VPd3,0.0
mp-979982,YbPu3,0.0
mp-979985,YbAu3,0.0
mp-979988,YbSm3,0.0
mp-980021,Yb3Os,0.0
mp-980061,TbAs3,0.0
mp-980109,SnAu3,0.0
mp-980188,RbYb3,0.0
mp-980200,Zn3Rh,0.0
mp-980385,Tb3Er,0.0
mp-980429,Sm3Hg,0.0
mp-980660,Tm3Mg,0.0
mp-980664,UBiSb,0.0
mp-980667,SrBr3,0.0
mp-980750,YAs3,0.0
mp-980811,TmMn12,0.0
mp-983564,EuAsO3,0.0
mp-983578,CsBiO3,0.0
mp-983584,Al3Tl,0.0
mp-983585,Al3Zn,0.0
mp-983590,Be3Fe,0.0
mp-983594,Al3Ga,0.0
mp-983604,Er3As,0.0
mp-984050,BiH3,0.0
mp-9848,PrP5,0.0
mp-997088,KAgO2,0.9551000000000001
mp-997511,Co3(OF2)2,0.0
mp-997586,La7YAl8O24,3.6350999999999996
mp-9977,Er2FeC4,0.0
mp-998152,TlAgF3,0.0
mp-998174,RbPdBr3,0.0
mp-998344,CsAgBr3,0.0
mp-998397,KCrCl3,0.0
mp-998553,KAgBr3,0.0
mp-998606,RbTlBr3,0.0
mp-998607,RbTlF3,0.0
mp-998608,TlAgBr3,0.0
mp-998732,TlInCl3,0.0
mp-998744,TlGeCl3,1.3881000000000001
mp-998748,TlAgCl3,0.0
mp-998750,KAgCl3,0.0
mp-998753,RbInCl3,0.0
mp-998800,RbInBr3,0.0
mvc-107,Ca(FeS2)4,0.0
mvc-10916,CaFeWO6,0.0
mvc-10945,Ca2VN3,0.18220000000000014
mvc-10961,V4O9,0.0
mvc-10962,CaCr4O8,0.0
mvc-11009,Y2Mn3O9,0.0
mvc-11037,CaMn4O8,0.0
mvc-11131,Zn(CoS2)4,0.0
mvc-11134,MgTi2O5,3.1167999999999996
mvc-11181,Al(CuO2)3,0.0
mvc-11183,SrCuBiO4,0.0
mvc-11252,Ca2CoN2,0.0
mvc-11253,Ca(CrS2)2,1.1301999999999999
mvc-11255,Ca(TiS2)2,0.0
mvc-11260,Ca(VS2)2,0.0
mvc-11265,Mg(CrS2)4,0.0
mvc-11266,Mg(CoS2)4,0.0
mvc-11271,Mg(VS2)4,0.0
mvc-11272,Mg(MnS2)4,0.0
mvc-11275,V4ZnS8,0.0
mvc-11277,Ca(NiS2)4,0.0
mvc-11283,Mg(TiS2)4,0.0
mvc-11284,Mg(CrS2)4,0.0
mvc-11285,Zn(CoS2)4,0.0
mvc-11289,Mg(CoS2)4,0.0
mvc-11313,Ti4ZnS8,0.0
mvc-11418,V4ZnS8,0.0
mvc-11476,Mg(VS2)4,0.0
mvc-11581,CrO2,0.0
mvc-11646,BaCo4O7,9.999999999998899e-05
mvc-11656,Mg(CoO2)4,0.0
mvc-11659,CaV4O8,0.0
mvc-13092,CaTi2O4,0.0
mvc-13133,Cu2SnSe4,0.0
mvc-13140,Cu2GeSe4,0.0
mvc-13150,Ca(FeO2)2,1.8397999999999994
mvc-13180,CrSe2,0.0
mvc-13246,La2MgSbO6,0.0
mvc-13391,TiO2,0.0
mvc-13402,CaLa2SnO6,3.9985999999999997
mvc-13408,Ca(TiN)2,0.0
mvc-13418,La2ZnFeO6,0.0
mvc-13419,CaLa2CrO6,0.0
mvc-13470,MgBiF6,0.0
mvc-13496,BiF5,0.0
mvc-13497,AlCuF5,0.0
mvc-5779,Ca2CuWO6,0.0
mvc-62,Ca(CoS2)4,0.0
mvc-878,Y(CuO2)3,0.0
mp-1008669,U,0.0
mp-1008673,TmCd2,0.0
mp-1009541,CsRbN,0.0
mp-1066,YbN,0.0
mp-1074532,Mg4Si3,0.0
mp-1079761,Ho(NiSb)2,0.0
mp-1080664,CrB,0.0
mp-1084762,MnRe(PbO3)2,0.0
mp-1094191,MgZn2,0.0
mp-1094373,Mg2Ti,0.0
mp-1094418,YMg2,0.0
mp-1094471,MgZr3,0.0
mp-1094475,MgZn,0.0
mp-1095343,Ca2Mg3Si,0.0
mp-1099232,Mg6FeNiO8,0.0
mp-1099335,BaMg6Si,0.0
mp-1099600,Sr2Ca6Co7CuO24,0.0
mp-11470,Hg2Pt,0.0
mp-1173225,Sr6La14Mn17(CuO20)3,0.0
mp-1183059,Ac3Yb,0.0
mp-1186019,MoPb3,0.0
mp-1193130,Na5Nd4Si4O17,0.38060000000000005
mp-1193221,Ca2(Ni7B2)3,0.0
mp-1193428,PrNi5Sn,0.0
mp-1193450,Mn3(Co10B3)2,0.0
mp-1193830,Er2(Ni7B2)3,0.0
mp-1193995,Ti6Ga16Ir7,0.0
mp-1200412,Y3Ge13Ir4,0.0
mp-12008,ErCdCu4,0.0
mp-1205981,TbBiRh,0.0
mp-1216527,TlIn,0.0
mp-1221805,Mn4FeS5,0.0
mp-14549,CuO,0.0
mp-14873,K4Nb8Si(P2O17)2,1.8862999999999999
mp-15986,Hf(CuP)2,0.0
mp-1777,Li15Ge4,0.0
mp-18244,K6MnS4,1.3034999999999999
mp-20211,Mn3Si,0.0
mp-20494,LaAs,0.0
mp-21168,EuGa2,0.0
mp-22085,DyCuPb,0.0
mp-22372,Mn6Ni16P7,0.0
mp-23032,CsCuCl3,0.45119999999999993
mp-28212,Nb4O5,0.0
mp-30032,TlIO4,2.0027999999999997
mp-30907,Dy3Co11B4,0.0
mp-3499,MnSbPd2,0.0
mp-3519,ZrSO,2.4196999999999997
mp-3574,MnAlCu2,0.0
mp-3791,ScCo2Sn,0.0
mp-3870,Sr2Nb2O7,2.684
mp-475,SnP,0.0
mp-542028,Ti3Al2NiN,0.0
mp-554959,K2Al2Sb2O7,3.499
mp-566240,Na5WNO4,3.0454999999999997
mp-633,LaSn3,0.0
mp-636403,PuNi3,0.0
mp-636813,Pb3O4,1.3059000000000003
mp-637030,Gd2Al6Si4Pt,0.0
mp-637637,CeRhC2,0.0
mp-639,US2,0.0
mp-639727,Cs,0.0
mp-639910,Y(Sn3Ru2)2,0.0
mp-643063,NbSe2,0.0
mp-674503,Hg2SbF6,0.0
mp-674940,La12Au3I13,0.0
mp-674953,Cu2GeTe3,0.0
mp-674984,CuSi2P3,0.0
mp-675013,Na(Ce2Se3)4,0.0
mp-675041,Eu2Zr2O7,0.0
mp-675095,NbAgO2,0.0
mp-675504,Li19(Mn3As4)3,0.0
mp-675531,NaBiS2,1.0899999999999999
mp-675535,La2SnSb4,0.0
mp-676599,Cu8NO11,0.0
mp-676682,In2AsSe,0.0
mp-676749,Li2UCl6,0.19389999999999974
mp-676762,Yb(CeS2)2,0.0
mp-676800,Ti7Ni3N10,0.0
mp-676828,ZnCuAs,0.0
mp-676878,Yb2EuS4,0.0
mp-677,SrCd2,0.0
mp-684597,InSb,0.0
mp-684602,W2C,0.0
mp-684604,CuS2,0.0
mp-684653,Cu2Se,0.0
mp-685871,Pr(FeSb3)5,0.0
mp-685957,Pr3(ZnAs3)2,0.0
mp-685980,NiMo3S4,0.0
mp-686041,Li7Nb8O24,0.0
mp-686088,Nb8P15O56,0.0
mp-686094,Ti3CuS6,0.0
mp-686203,Y40Si13S27,0.0
mp-686204,K3Ba2Pr2(BiO5)3,0.0
mp-686268,Cu2H4C4N3O,0.0
mp-686346,Ca17(Y7S19)2,0.0
mp-686742,Ag2H21N7(ClO4)2,0.0
mp-690463,V(FeO2)2,0.0
mp-696867,V4NiS8,0.0
mp-696931,TlCuHSeO5,0.0
mp-696956,CuHClO,0.0
mp-698797,Sr3La9Mn10(CuO18)2,0.0
mp-699179,Li7Mn17O32,0.0
mp-699232,Mg7P2(HO2)8,4.852600000000001
mp-699371,Al2NiO4,3.076200000000001
mp-699460,KLiH4S2(NO3)2,5.3355999999999995
mp-699567,KCa9Co(PO4)7,0.0
mp-699583,NaCa9Co(PO4)7,0.0
mp-699599,LiCa9Co(PO4)7,0.0
mp-7157,Tb(AlGe)2,0.0
mp-7158,Lu(AlGe)2,0.0
mp-7170,UTeP,0.0
mp-7192,Sc2Sb,0.0
mp-7194,TbCuAs2,0.0
mp-7496,ThZn2,0.0
mp-7497,ThSi2,0.0
mp-7526,SnP,0.0
mp-753455,BiOF3,1.6745999999999999
mp-753510,Sb3O4F,2.6374999999999997
mp-753575,BaCaI4,3.441
mp-753832,Bi4O3F7,0.25680000000000014