task_id,pretty_formula,band_gap
mp-754176,Ce3Th3O11,0.0
mp-754407,Li2FeS2,0.0
mp-754587,K2Be2O3,3.3024999999999998
mp-754725,UCd3O6,1.7871000000000001
mp-754993,SbSeO5,0.0
mp-755032,Cu3(TeO5)2,0.11499999999999977
mp-755078,Sr2Ti6N2O11,1.8455999999999997
mp-755605,TbCO3,3.9850000000000003
mp-755649,K2Eu2O3,0.0
mp-756009,NaCu3O4,0.0
mp-756467,TiCu(PO4)2,0.0
mp-756768,Li3BePCO7,5.242999999999999
mp-756821,LiAgF3,0.031100000000000017
mp-756898,TmTaO4,3.8065999999999995
mp-756949,Tm2GeO5,3.4509999999999996
mp-761321,LiVPO4,2.2691999999999997
mp-762391,Li2(NiO2)3,0.0
mp-7632,NiMoP,0.0
mp-764811,Co6O7F5,0.0
mp-764832,Fe2O3F,0.0
mp-764843,FeOF,0.0
mp-764877,Co3(O2F)2,0.0
mp-764992,Co29Ge13O56,0.0
mp-765020,Sr24Fe16O53,0.0
mp-765023,Li5Mn(CO3)4,1.0552000000000001
mp-766748,Li2VSi4O11,0.9102999999999999
mp-767305,CuNi9O10,0.0
mp-767490,Li9Ti12NbO30,0.0
mp-767545,Na3ZnPCO7,3.7794999999999996
mp-767546,Na2AsPCO7,4.1674999999999995
mp-767560,W5O12F,0.0
mp-767566,Na2TmPCO7,4.412999999999999
mp-767627,Mn3(OF3)2,0.0
mp-767637,LiCrCO3F2,2.7662999999999998
mp-767648,Li2SiNiO4,3.4758999999999998
mp-767649,Li2VF6,2.0042999999999997
mp-767724,Li5Fe3(BO3)4,1.1480000000000001
mp-767729,Li12V3CrP4(CO7)4,1.9742000000000002
mp-767807,Mn(CoO2)2,0.41029999999999944
mp-767815,Ni6O7,0.0
mp-767843,Li5Mn6(BO3)6,0.0
mp-767877,Li2Si4NiO10,3.8893999999999997
mp-767948,LiNiP2O7,0.042200000000000015
mp-767950,Li4Ni5O9,0.0
mp-768004,MgFe11O18,0.0
mp-768059,Li7Ni9O16,0.0
mp-768089,Na2NiPCO7,0.0
mp-768098,Na3Ni2P2(CO7)2,0.0
mp-768107,Na13Ni11O24,0.0
mp-768256,Li4Bi2C4SO16,1.9199000000000002
mp-771636,Li(CoO2)2,0.0
mp-7753,MgPd3,0.0
mp-775402,Li4(NiO2)7,0.37529999999999974
mp-775650,Ti3V2Co(PO4)6,0.0
mp-775655,Li4Mn3Cr2Sn3O16,0.19809999999999972
mp-775658,Ti3NbV2(PO4)6,0.0
mp-775675,V3Fe2Sb(PO4)6,0.0
mp-775680,Li4Fe3Ni2Sn3O16,0.0
mp-775721,Li2FeCo3O8,0.0
mp-775782,Na4Sn2C4SO16,0.0
mp-775804,Li3SbS3,2.3579999999999997
mp-775830,Na3Bi(BO3)2,3.1380999999999997
mp-775866,Zr2N2O,1.7744999999999997
mp-775987,Ti3Fe2Ni(PO4)6,1.9837000000000002
mp-775988,Mn2NbFe3(PO4)6,2.2996999999999996
mp-775989,CrFe3Sb2(PO4)6,2.2860999999999994
mp-775990,Fe3Ni2Sn(PO4)6,0.0
mp-778573,Mn2OF3,0.0
mp-781992,PH8N4Cl,5.000299999999999
mp-782646,Fe4O7F,0.0
mp-782652,Li4Ti3Cr3(NiO8)2,0.9182999999999999
mp-782656,Co2OF3,0.0
mp-782701,Co3(O2F)2,0.0
mp-850113,Fe7(Ni3O8)2,0.9306999999999999
mp-850116,Li8(NiO2)5,0.017300000000000093
mp-850473,Co3P4O15,0.0
mp-850487,Li7VGeO8,2.7390999999999996
mp-850515,Ni(SO4)2,0.0
mp-850763,LiCrP2O7,1.9636999999999998
mp-850771,Li8Mn7Fe(BO3)8,2.901
mp-850772,Li8CoNi9O20,0.0
mp-850776,Fe5O7F3,0.0
mp-850870,Fe5O7F3,0.0
mp-850886,Fe4O5F3,0.0
mp-850913,LiVOF3,1.6564999999999999
mp-850921,LiMn2(BO3)2,0.24309999999999987
mp-850940,Mn12O5F19,0.0
mp-851013,VFe2(PO4)3,0.0
mp-853131,Li2V3CrO8,0.0
mp-862331,La2CuRu,0.0
mp-862929,Li2PmAl,0.0
mp-863676,Pm2CuSn,0.0
mp-8640,Hf,0.0
mp-864878,ZrAlAu2,0.0
mp-865383,Tm2OsRu,0.0
mp-865519,YTaRu2,0.0
mp-866105,Ca2HgPb,0.0
mp-866745,La3CrW(SO2)3,1.3700999999999999
mp-867769,ScZnRh2,0.0
mp-867773,DyMgCd2,0.0
mp-971657,Au3N,0.0
mp-973553,Gd(Al2Cu)4,0.0
mp-974432,Re3Sn,0.0
mp-976017,Li3Co,0.0
mp-977148,LiBeH3,4.3797999999999995
mp-977250,Pm5Mg,0.0
mp-977273,MgRh5,0.0
mp-977345,Ho2Co3Si5,0.0
mp-977347,Hf5Al3N,0.0
mp-978252,Ce2Zn17,0.0
mp-978662,Sc6Al16Ir7,0.0
mp-978976,Ti6Al16Pt7,0.0
mp-978997,Sm(NiBi)2,0.0
mp-979081,TmMg5,0.0
mp-979116,Th3Br,0.0
mp-979234,Sm3Y,0.0
mp-979254,SnGe3,0.0
mp-979262,Tl3F,0.0
mp-979263,ThMg3,0.0
mp-979268,Tl3Br,0.0
mp-979271,TbAgSe2,0.47209999999999974
mp-979282,TbU3,0.0
mp-979286,Xe,6.170100000000001
mp-979292,SmY3,0.0
mp-979293,Sm3I,0.0
mp-979339,Sm3Cd,0.0
mp-979355,Sm3Dy,0.0
mp-979416,Ta2Be2O5,0.0
mp-979465,SmCd3,0.0
mp-980056,Rb2Yb2O5,0.0
mp-980190,LiYb3,0.0
mp-982663,K3Ho,0.0
mp-983459,HfZr,0.0
mp-983480,Hf6Al16Rh7,0.0
mp-983497,Pa3Zn,0.0
mp-983513,PmRuO3,0.0
mp-983539,BeAu3,0.0
mp-9847,YbP5,0.0
mp-984716,CaSn4(PO4)6,3.5178999999999996
mp-984743,Er2Ge5Rh3,0.0
mp-989647,YReN3,0.0
mp-989649,CaMoN3,0.0
mp-9901,Sc3Co2Si3,0.0
mp-990441,H2O,0.0
mp-9908,Ba2Sb,0.0
mp-9918,LiGe,0.0
mp-9952,Hf5ZnSb3,0.0
mp-9967,NdSi,0.0
mp-9968,PrSi,0.0
mp-997052,RbAgO2,1.029
mp-9998,MoAs,0.0
mvc-11662,Ca(FeO2)4,0.0
mvc-12905,FeO2,0.0
mvc-12954,Ca(MnS2)2,0.0
mvc-12970,Mg(FeS2)2,0.0
mvc-13015,Cu3(SnO3)4,0.0
mvc-13730,Ca(MnN)2,0.0
mvc-4607,Mo2O5,1.8672000000000002
mvc-4634,Al(WO2)2,0.0
mvc-4645,Y(WO2)2,0.0
mvc-4838,Ca2TiAlO5,0.0
mvc-4845,W2O5,0.31149999999999967
mvc-4889,Ca2AlCuO5,0.0
mvc-5110,Ca2MoO5,0.0
mvc-5113,Ca2AlVO5,1.5072999999999999
mvc-5120,ReWO6,0.0
mvc-5131,Ca2WO5,0.0
mvc-5154,Ca2AlAgO5,0.0
mvc-5168,Ca2AlFeO5,0.9306000000000001
mvc-5178,Ca2YTiO5,0.0
mvc-5183,Ca2AlNiO5,0.0
mvc-5219,Ca2CrO5,0.33530000000000015
mvc-5257,Ca2AlWO5,0.9559999999999995
mvc-5427,Mg(CuO2)2,0.0
mvc-5434,Zn(CuO2)2,0.0
mvc-5452,CaNi2O5,0.0
mvc-5485,CrO2,0.0
mvc-5627,NiO2,0.0
mp-1008653,AgC,0.0
mp-1018053,InCu,0.0
mp-1025066,ErInCo4,0.0
mp-1025204,Al2FeS4,0.0
mp-1039028,CaMg5,0.0
mp-1039536,CaMg,0.0
mp-1059256,Pr,0.0
mp-1079325,Sr(AsPt)2,0.0
mp-10923,Ca2Co12P7,0.0
mp-1094309,Sr3Mg,0.0
mp-1094561,MgSb2,0.0
mp-1099307,KSrMg6,0.0
mp-1099951,Sm2Cr2O5,0.0
mp-1100158,BaHfMg6,0.0
mp-11207,Pr3ReO7,0.0
mp-11497,TbMg2,0.0
mp-11525,TmNi,0.0
mp-1183408,Be3Pd,0.0
mp-1186705,Pr3Dy,0.0
mp-1206518,RbFeCl3,0.0
mp-1207078,CaNiH3,0.0
mp-1218228,SrLaMn2O5,0.0
mp-1222667,Li5Mn2Co(NiO5)2,0.9828999999999999
mp-1225685,CuNiPd,0.0
mp-1239151,NbCr3(CuS4)2,0.0
mp-12866,SrSnO3,1.6118000000000001
mp-14970,BaLaCuBO5,0.0
mp-15074,Sr(PIr)2,0.44320000000000004
mp-1713,CsCd13,0.0
mp-21854,Nd3TlC,0.0
mp-2214,TmMg2,0.0
mp-23026,CsAuCl3,0.0
mp-2597,InTe,0.0
mp-27562,Na2Pd3O4,0.43409999999999993
mp-29804,Cr3GeC,0.0
mp-30668,Ta5Ga3,0.0
mp-3337,Ti6Si7Ni16,0.0
mp-33528,NbP2O7,0.0
mp-504100,CuO2,0.0
mp-505296,Ce2MgSi2,0.0
mp-619,UB4,0.0
mp-634989,TlSbTe2,0.0
mp-635471,CeBi,0.0
mp-6361,NaSr3NbO6,3.2962000000000002
mp-636334,SnRh2,0.0
mp-639154,Co23B6,0.0
mp-644143,LaSb2Au,0.0
mp-673017,CuPO4,0.0
mp-673047,CuPO4,0.0
mp-673174,Fe8N3,0.0
mp-6732,La2MgIrO6,0.0
mp-673844,Cr(FeSe2)2,0.0
mp-673854,NdVSb3,0.0
mp-674310,Cr4Cu3Se8,0.0
mp-675102,Ce9GdO20,0.0
mp-675134,Sr5Ti5O13,0.0
mp-675153,Ca16HN8,0.0
mp-675160,Ce11MnS16,0.0
mp-675195,Li13(Mn3As4)2,0.0
mp-675278,Cu11S16,0.0
mp-675310,Na3(VSe2)5,0.12400000000000011
mp-675326,Nb4IrSe10,0.0
mp-675327,Ag9(PbO3)4,0.0
mp-675329,LaZr9O20,0.0
mp-675367,Nb3IrS8,0.0
mp-675452,Ti20H2N17,0.0
mp-675470,YZr9O20,0.0
mp-675473,Li7MnAs4,0.0
mp-675601,Al3NO3,4.0828999999999995
mp-676586,Na(VS2)2,0.0
mp-676597,BaVSe3,0.0
mp-6820,Cu2Hg2SF6,0.0
mp-686056,Fe(Mo3Se4)2,0.0
mp-686085,Sc13Cu13O33,0.0
mp-686097,Li7Nb8O24,0.0
mp-686110,Li(ReO3)5,0.0
mp-686174,Ti24Ga5S48,0.0
mp-686736,Sr5Li25La7(BiO6)8,1.9155000000000002
mp-694965,Li3(NiO2)8,0.0
mp-6950,BaSb3,0.0
mp-695277,BaLaTiCuO6,0.0
mp-695708,Ba7SiB3NO13,0.18159999999999998
mp-696221,KAl(H2N)4,0.20340000000000003
mp-696673,Cr7Se8,0.0
mp-696795,Cu2H3NO6,0.0
mp-697806,Ni3(PO4)4,0.0
mp-697816,Li2Fe(PO4)2,0.0
mp-697818,Sr2Pr2MnCuO8,0.0
mp-697922,ScH8(NF2)3,0.0
mp-697926,LiCd2HSe2O7,3.5103999999999997
mp-698468,CdH9C2(N2O5)2,1.8031000000000001
mp-698549,Ca4Mn4O11,0.0
mp-698563,Ni3(BiO2)10,0.0
mp-698592,Li10Mn21O48,0.0
mp-698941,Nd5Fe5As5O4F,0.11980000000000057
mp-699501,Ba(HO)2,3.7449999999999997
mp-699550,KCu3Ag(MoO4)4,0.39769999999999994
mp-699552,KMoCl4O,2.8030999999999997
mp-699565,KV3Cu5O13,0.0
mp-699707,VCu2BiO6,0.0
mp-703302,Cd9(InSe2)20,0.0
mp-706272,Sr3FeN3,0.0
mp-7107,Er(SiPt)2,0.0
mp-7108,Tm(SiPt)2,0.0
mp-7109,Lu(SiPt)2,0.0
mp-7112,Sr2Cu3(SO)2,0.0
mp-7120,Sm(AlSi)2,0.0
mp-7135,TbS2,0.0
mp-744274,Fe(Si2O3)2,0.0
mp-744565,Sr3Fe2(HO)12,0.0
mp-744975,Ba4La6Mn(Co3O10)3,0.0
mp-745175,CrH12(ClO2)3,3.0458999999999996
mp-7459,Te2Mo,0.0
mp-7475,La2S3,1.0341999999999993
mp-7507,Sr3Li2,0.0
mp-752539,Cs2Ba2O3,1.4585000000000001
mp-753209,LiAgF4,0.0
mp-756801,K3GePCO7,3.6868000000000003
mp-757200,Li3Si2Bi3O10,3.169
mp-757254,Mg2Cu5O7,0.0
mp-757308,Na7Ti13O26,0.0
mp-757535,Li35(RuO4)12,0.0
mp-757542,Li3Ti(Si2O5)3,0.14139999999999997
mp-757768,Cu10Bi25O48,0.0
mp-757870,Li2Cu2(Si2O5)3,0.0
mp-758170,LiCuPO4,0.0
mp-758176,LiCuPO4,0.0
mp-758194,Mg4Cu11O15,0.0
mp-758497,LiCuPO4,0.28949999999999987
mp-758551,K3EuSi3(HO5)2,0.0
mp-758837,LiCu(PO3)2,1.2716000000000003
mp-758918,LiCuPO4,0.0
mp-761448,Mn6Cr9O20,0.0
mp-761816,Li3Co11O14,0.0
mp-762337,Li2CuF5,0.11970000000000014
mp-764317,LiMn2F5,3.382
mp-764435,Mn2O3F,0.0
mp-764804,Li3MnFeCo(PO4)3,2.2680999999999996
mp-764882,Fe4O5F3,0.0
mp-764902,Li4Fe2Co3Sb3O16,0.9088000000000003
mp-764903,Li6FeO5F,0.0
mp-764904,LiFe2(BO3)2,0.0
mp-764917,Li3VO3F,1.4337999999999997
mp-764940,FeOF,0.0
mp-764979,Li7Sc9Fe(SiO3)20,0.0
mp-764995,Sr12Mn6O23,0.0
mp-765044,Li14V9(P2O7)8,2.6485999999999996
mp-765532,LiV3O5F,1.2032000000000003
mp-765628,Li4Cu3Bi(PO4)4,0.0
mp-765980,Li4CuSi2O7,0.022299999999999986
mp-766091,Li4La5Ti6Nb2O26,0.0
mp-766918,LiMnF5,1.388
mp-767003,LiMn2O2F3,0.0
mp-767653,LiNi6O7,0.0
mp-767656,Nb4VO12,1.8575999999999997
mp-767662,Li3Fe3(BO3)4,1.8116999999999999
mp-767677,Na4(WO3)9,0.0
mp-767690,Ge2(WO3)9,0.0
mp-767694,Li12MnFe3P4(CO7)4,3.6399999999999997
mp-767696,V2Co(H4O5)2,0.0
mp-767698,Li12MnNi3P4(CO7)4,2.7359999999999998
mp-767825,Cr22Ni50Mo3,0.0
mp-767874,Mn4Si4O13,0.0
mp-767918,Li4FeNi5(PO4)6,0.0
mp-768040,Li11Mn12(BO3)12,0.0
mp-768070,Na2NiPCO7,0.0
mp-768498,Cr7Ni20Mo3,0.0
mp-769964,Cd6(CoO3)5,0.0
mp-772359,Mn3CoO8,0.0
mp-773261,LiZn(FeO2)4,0.0
mp-774797,Li2Ti3ZnO8,3.1267999999999994
mp-775695,Li4Mn3V2Sb3O16,0.46609999999999996
mp-775734,Li5V6(CuO4)6,0.0
mp-775738,Na5Ni2P2(CO7)2,0.0
mp-775750,LiFe(Si2O5)3,0.0
mp-775852,Li4Sb2C4SO16,2.5505999999999998
mp-775925,Li8Sb7S19,0.0
mp-776427,ZrO2,3.5894999999999997
mp-777249,Li4V3Cr3(SbO8)2,1.4934000000000003
mp-777825,LiEuPSe4,0.0
mp-778027,Co3OF5,0.0
mp-778245,Li4FeF8,0.0
mp-778458,Li3Cu2(SO4)3,0.0
mp-782662,Li2V5Cr2O12,1.2826999999999997
mp-782708,V4(OF3)3,1.5231000000000001
mp-782725,MnOF,0.12150000000000016
mp-8435,Ta2PdS6,0.0
mp-8436,Ta2PdSe6,0.0
mp-8447,K5Ti3F14,0.0
mp-849286,Ba(GaS2)2,2.8998999999999997
mp-8496,Sr2SmNbO6,3.1475999999999997
mp-850232,Na(FeO2)2,0.0
mp-850360,Mn8O13F3,0.0
mp-850433,Li2Mn3(BO3)3,0.0
mp-850436,Li2Mn3(BO3)3,0.0
mp-850437,Li5Mn6(BO3)6,0.0
mp-850451,Mn6O7F5,0.0
mp-850764,LiVP2HO8,1.4186999999999999
mp-850775,Li7Mn8(BO3)8,0.26849999999999996
mp-850885,LiMn2(BO3)2,0.0
mp-850953,Mn12O5F19,0.0
mp-850955,LiFeP3(H7O8)2,3.9340999999999995
mp-862340,Sc2GaCu,0.0
mp-866662,K5La4Si4O16F,4.661
mp-898,HoAl3,0.0
mp-945228,Eu(GaSb)2,0.0
mp-9457,Ca3ReO6,0.0
mp-949028,Sn,0.7135000000000002
mp-950217,BiI4,0.46820000000000006
mp-9530,Y4C7,0.0
mp-9640,SrCu(SeO3)2,0.40789999999999993
mp-9664,K3BP2,1.6660000000000001
mp-977049,Hf4Co4Ge7,0.0
mp-977054,La(Al2Fe)4,0.0
mp-9771,UTi2O6,0.0
mp-978987,SrGe3Pd,0.0
mp-978993,Th3S,0.0
mp-979001,SmAs2Au,0.0
mp-979010,TmPu3,0.0
mp-979013,SmGe3,0.0
mp-979014,SrAc3,0.0
mp-979026,SmTm3,0.0
mp-979028,Sm2Mg,0.0
mp-979038,Th3O,0.0
mp-979040,TmAl3,0.0
mp-979041,Tm(AlC)3,0.05750000000000011
mp-980420,Ti3Si,0.0
mp-980647,TmThOs2,0.0
mp-980661,YTlAg2,0.0
mp-981988,Y(Mg4Al3)4,0.0
mp-982005,Th(Mg4Al3)4,0.0
mp-982385,Np3S5,0.0
mp-983234,Sm2Ge5Ir3,0.0
mp-9834,NdGaO3,0.0
mp-983567,CaAc3,0.0
mp-985277,Ce2USe5,0.0
mp-989621,LaOsN3,0.0
mp-989626,LaWN3,0.0
mp-989630,LaWN3,0.0
mp-989641,LaOsN3,0.0
mp-999501,Na,0.0
mvc-12040,CrO2,0.12249999999999994
mvc-12083,Mn4(CuO4)3,0.0
mvc-13564,Ca(VS2)2,0.0
mvc-4103,Al(SnO2)2,0.0
mvc-4364,BiO2,0.9408000000000001
mvc-4397,CaSb2O5,0.0
mvc-4405,Y(WO2)2,0.0
mvc-4408,Ge3(MoO6)2,2.1637999999999997
mvc-4602,AlCr2O4,0.0
mvc-4604,Al(CoO2)2,0.24979999999999958
mp-1018179,AlAu2,0.0
mp-1018851,OsN2,0.0
mp-1078315,PrBi2Au,0.0
mp-1078889,La(AsIr)2,0.0
mp-1078947,Nd(AlAu)2,0.0
mp-1080550,KO2F,0.0
mp-1091413,CdCu2SnTe4,0.0
mp-1094711,CeMg5,0.0
mp-1095057,VCo3,0.0
mp-1095889,TaNbOs2,0.0
mp-1099117,CaCeMg6,0.0
mp-1099295,KMg6Sn,0.0
mp-1099298,CsMg6Ti,0.0
mp-1099703,Sr3CaTi3MnO12,0.0
mp-1099938,K3Na5VMo7O24,0.0
mp-1183160,AlInO3,0.0
mp-1205881,LaNb2HO7,0.0
mp-1226063,CoNi,0.0
mp-1239146,HfCrCuS4,0.0
mp-12627,Nb3S4,0.0
mp-151,Tl,0.0
mp-16108,Cs3P6N11,4.087899999999999
mp-18834,SrMoO4,3.8073999999999995
mp-19665,NaCoPO4,2.6915999999999998
mp-21266,BPPbO5,4.259
mp-21296,PtPb4,0.0
mp-22442,Ba2NaOsO6,0.0
mp-23274,Ta2Cl5,0.0
mp-23694,LiBH,0.0
mp-24136,Cs(BH)6,5.381399999999999
mp-30030,Zn6Ni7Ge2,0.05550000000000033
mp-30592,CuNi2Sn,0.0
mp-30663,Ga3Pt5,0.0
mp-504753,Cu12As4S13,0.0
mp-505473,Al(Ni10B7)2,0.0
mp-546633,KClO4,5.128
mp-567692,Y3Ni4B4C3,0.0
mp-601326,Sr6Ge5N2,0.0
mp-624492,Li(Fe3Ge2)2,0.0
mp-625686,H4N2O3,4.819599999999999
mp-632822,Li5B4,0.0
mp-6342,LiCa3RuO6,0.31110000000000015
mp-6345,Ba3TbRu2O9,0.0
mp-647903,Ba2LuSbO6,0.0
mp-669308,Cs3Tm2I9,2.8920999999999997
mp-669402,Lu2Si5Ru3,0.0
mp-669418,Sr2NiN2,0.0
mp-669434,BiTeIO3,0.0
mp-669435,KLaCO4,0.0
mp-669436,ZrAsPd,0.0
mp-669501,Si3Ru2,0.0
mp-669525,Sb3Pd8,0.0
mp-670677,Ce5(In2Pt)2,0.0
mp-672195,CeAgAs2,0.0
mp-672217,La5Ga3,0.0
mp-672226,BaMnSi2,0.0
mp-672228,TiAs2,0.0
mp-672237,PbO,1.5392000000000001
mp-672241,Cs,0.0
mp-672256,Y5Ga3,0.0
mp-672261,Ce3Ru,0.0
mp-672286,Eu3Ga2,0.0
mp-672287,Li13Si4,0.0
mp-672306,Ba6In5N,0.0
mp-672313,Sc6Pb5,0.0
mp-672344,CeAl5Pt3,0.0
mp-672394,YbIn4Ni,0.0
mp-672684,Zn6Sb5,0.0
mp-672690,U2S3,0.0
mp-672696,Hf2Nb3Ge4,0.0
mp-674312,Eu2Nb4O13,0.0
mp-674320,Ce9DyO20,0.0
mp-674325,Rb4CO6,0.42699999999999994
mp-674332,U17O31,0.0
mp-674343,Ti10Cu7S20,0.0
mp-674347,Yb4MgGe4,0.0
mp-6744,K2Fe(PS3)2,0.21560000000000024
mp-674436,NdZr9O20,0.0
mp-674456,Zr10HN8,0.0
mp-674484,YbCe9O20,0.0
mp-674708,Rb4N4O3,0.0
mp-674831,Cu2S,0.0
mp-674942,Na3N2O9,0.0
mp-674976,Zr9ScO20,0.0
mp-674982,Li19Mn5N9,0.0
mp-676414,Al4CO,0.0
mp-676424,Sm(GdS2)2,0.0
mp-676443,La5YbS8,0.0
mp-676497,Ce2UTe4,0.0
mp-676499,Cu6PbO8,0.0
mp-677733,K2TiAl(PO4)3,2.8994999999999997
mp-685618,FeAgTe2,0.0
mp-691117,SrLaTiMnO6,0.0
mp-694857,Sr3Cr2O7,0.0
mp-694896,NaCa2V3(CuO6)2,0.0
mp-694957,KMn4O8,0.018399999999999972
mp-696290,CuH8C4N8(ClO)2,0.0
mp-697730,Mn3(PO4)4,0.0
mp-7062,Mg3Al9FeSi5,0.0
mp-7092,TiSi,0.0
mp-7093,HoAgGe,0.0
mp-7096,Fe3S4,0.0
mp-7097,ThAs2,0.0
mp-722903,K2LiAlF6,0.0
mp-7368,Dy2Se3,0.36329999999999973
mp-737,Hf5Ge4,0.0
mp-7379,TlCdSb,0.0
mp-743579,SrCoBiRuO6,0.0
mp-743696,Ca3Zr2Fe2SiO12,2.5970999999999997
mp-743702,Ca2V3Co2AgO12,1.9168999999999996
mp-743864,Zr2Fe2F3,0.0
mp-744086,SrLaMnRuO6,0.0
mp-751967,V2NiP2H6O13,1.4936000000000003
mp-752554,Y2HfO5,4.268599999999999
mp-752730,Ba2GeO4,3.9678000000000004
mp-752870,ZrU4O10,0.0
mp-753319,Li3Nb4SnO12,0.0
mp-753351,Ba2CaI6,2.9463999999999997
mp-753422,Ba5In5O12,0.0
mp-753429,Li4Bi2S7,0.9159999999999999
mp-754667,BaSr2I6,3.6057999999999995
mp-759334,LiCuPO4,0.0
mp-760579,Ti3Cu3(TeO8)2,0.0
mp-761037,Hg(ClO3)2,2.6231999999999998
mp-761410,Li4MnV3(PO4)4,2.5009000000000006
mp-762296,Li2Co3NiO8,0.0
mp-764308,Li4Fe3Co3(NiO8)2,0.0
mp-764429,Li3V2(O2F)2,0.0
mp-764574,Mn6O7F5,0.0
mp-764582,Mn6O7F5,0.0
mp-765339,LiAgF4,0.0
mp-765376,Mn3CoSn2(PO4)6,0.0
mp-765381,Li9Ti7Cr6O30,0.0
mp-765387,LiV(CO3)2,1.9825000000000002
mp-765392,Li6Fe9CoO20,0.0
mp-765393,Li10Cr3P6(O4F)6,0.0
mp-765394,LiNiPO4,3.2171999999999996
mp-765402,Mn3VCr2(PO4)6,0.0
mp-765420,Li11V4F24,0.0
mp-766743,LiCo15O16,0.0
mp-766779,Ti15VO24,0.0
mp-766793,Li5Co5(NiO6)2,0.0
mp-767157,Ti16CuS32,0.0
mp-767446,CoP2O7,0.0
mp-767621,Li4Mn8O9F7,0.48429999999999995
mp-767623,LiMn2(PO4)2,0.0
mp-767634,Na5Fe6(SiO3)12,0.0
mp-768815,NaSbAsCO7,0.0
mp-772713,Na3SiSbCO7,3.0098999999999996
mp-772825,Ta2BeO6,3.3709999999999996
mp-773891,LiCuPO4,0.0
mp-773970,Li4Ti2Mn3Sn3O16,0.0
mp-774064,LiSb(PO4)2,1.7854999999999999
mp-775127,Li4Fe3O8,0.0
mp-775303,Li2Fe(Si2O5)3,0.0
mp-775377,Li3V6O13,0.22409999999999997
mp-775469,Li6Ti7Cr5O24,0.0
mp-775500,Li11V12(CuO4)12,0.0
mp-775503,Li4Ti4Mn4FeO18,0.0
mp-776760,Ti3FeSb2(PO4)6,0.0
mp-776762,LiVF5,1.9967000000000001
mp-776765,V3CrSn2(PO4)6,0.0
mp-776772,Li4Ti2Cr3Sn3O16,0.0
mp-776780,Li4Ti3Cr3(SnO8)2,0.0
mp-776785,Li2Fe(BO3)2,0.11149999999999993
mp-776802,LiFeF3,3.4840999999999998
mp-776805,Li4Mn3Cr3(SnO8)2,0.0
mp-776809,Li2Mn3F8,3.4295999999999998
mp-777684,LiFe2F5,2.6361999999999997
mp-778330,FeOF,0.0
mp-778415,Li32Mn3Cr13O48,0.9846999999999997
mp-778621,Li32Ti3Cr13O48,1.0615999999999999
mp-778636,Li4Co3P4O15,2.8710999999999998
mp-781825,Li9Cu2(HO2)4,0.0
mp-781861,Nb2CdO6,3.4374000000000002
mp-781955,Li2Mn3(BO3)3,0.18369999999999997
mp-8140,AsPO4,4.567900000000001
mp-8154,La2Ti2O7,2.9172000000000002
mp-8244,Ti5TlSe8,0.0
mp-8323,Dy2S2O,2.1698999999999997
mp-8347,BaMnS2,0.43669999999999964
mp-8392,Sc3Si3Ni,0.0
mp-8412,LiCeO2,0.0
mp-849760,Al11AgO17,3.1959999999999997
mp-850076,Li2V3P4(HO4)4,2.3829999999999996
mp-850108,Na3CoO3,0.32489999999999997
mp-851232,V3FeSn2(PO4)6,0.0
mp-853172,Li2VF4,2.6201999999999996
mp-853183,V3Cr2Sn(PO4)6,0.0
mp-861956,LiPm2Ir,0.0
mp-863912,Li3Mn2(PO4)3,0.0
mp-8648,TiFeSi,0.0
mp-864942,Mg3TcH7,2.6374999999999997
mp-865317,Tm2CuPt,0.0
mp-866218,Ti2MnRh,0.0
mp-866220,CaNdZn2,0.0
mp-9149,Er3P4Pd7,0.0
mp-9205,KSeO2F,3.3213999999999997
mp-9236,U2Si4Mo3,0.0
mp-9239,NaLaMgTeO6,2.5432000000000006
mp-9278,U2Si4W3,0.0
mp-9305,Mn4As3,0.0
mp-9391,TaNi2Te3,0.0
mp-943466,Li2CoPHO5,2.8023999999999996
mp-950,NaZn13,0.0
mp-962058,YSeCl,1.8962999999999997
mp-962059,SrMgSi,0.0
mp-966582,CaAlH5,2.8366000000000002
mp-966591,Ca(BH4)2,5.4940999999999995
mp-966740,Cs5Tl11Cd2,0.0
mp-975640,Pr3(CuSn)4,0.0
mp-9759,BaPr2PdO5,2.2470999999999997
mp-9767,BaAs2Pd,0.0
mp-9768,BaSb2Pd,0.0
mp-976891,MgPb5,0.0
mp-9769,BaAs2Pt,0.0
mp-976944,Li5Mg,0.0
mp-977582,ZrZnRh2,0.0
mp-978569,Sm(BRh)4,0.0
mp-978849,Sm3Mg,0.0
mp-978853,Sr(GeIr)2,0.0
mp-978906,Sm3Dy,0.0
mp-978927,SmEr3,0.0
mp-978939,Sm3Th,0.0
mp-978960,Sm3Tm,0.0
mp-978963,Ti3Be,0.0
mp-978965,Th3Ni,0.0
mp-978967,SrDy3,0.0
mp-978968,Ti3O2,0.0
mp-978985,SnBr2,1.7809000000000001
mp-978986,Sr(GePd)2,0.0
mp-9815,TaTl(CuS2)2,1.9467999999999996
mp-9833,PrGaO3,0.0
mp-983519,SnH22C6(NCl2)2,4.292400000000001
mp-989586,SrTcN3,0.0
mp-989589,LaMnN3,0.0
mp-989607,LaOsN3,0.0
mvc-11612,Mn2ZnO4,0.0
mvc-11640,Y(FeO2)2,0.03869999999999996
mvc-11653,CrSe2,0.0
mvc-11726,CaLa2MoO6,0.0
mvc-11733,La2MgVO6,1.7109000000000005
mvc-11748,Ca(TiS2)2,0.0
mvc-11780,MoS2,0.0
mvc-11840,V4(CuO4)3,0.0
mvc-11995,Ca(CoO2)2,2.1477999999999997
mvc-3803,Ca2Sn2O5,1.4125000000000005
mvc-3807,Ca2Bi2O5,2.1186999999999996
mvc-3809,Ca2Ag2O5,0.0
mvc-3812,Zn2Cu2O5,0.0
mvc-3827,Zn2Sn2O5,0.0
mvc-3834,CaSbO3,0.0
mvc-3850,CaBiO3,0.0
mvc-3949,Mg2Co2O5,0.0
mvc-3952,Mg2Ni2O5,0.0
mvc-3978,Ca2Co2O5,0.0
mvc-3985,Ca2V2O5,1.0142000000000007
mvc-3987,MgCrO3,0.0
mvc-3989,Mg2Mo2O5,0.0
mvc-3990,Zn2W2O5,0.0
mvc-3991,Zn2Ni2O5,0.0
mvc-3992,Ca2Ni2O5,0.0
mvc-3993,Ca2W2O5,1.7084000000000001
mvc-3994,CaCoO3,0.0
mvc-4007,Zn2Mo2O5,0.12440000000000007
mvc-4008,ZnNiO3,0.0
mp-10026,ScTe,0.0
mp-10350,BaNdCuBO5,0.0
mp-1039347,SnBi3,0.0
mp-1063314,Ca2Rh,0.0
mp-1078240,Si6Ni3Au,0.0
mp-1078492,Cr3PC,0.0
mp-1094258,Hf3Mg,0.0
mp-1099079,CeMg14Sn,0.0
mp-1099084,Mg14FeC,0.0
mp-1099327,CeMg6Cr,0.0
mp-1105843,Ce5Sn3,0.0
mp-1110717,K2RbMoCl6,1.6362999999999999
mp-1112,CeCo2,0.0
mp-1181754,Cu3As4,0.0
mp-1183393,BaTlO3,0.0
mp-1183917,CsMoO3,0.0
mp-1184641,GeTeO3,0.0
mp-1185096,La3Sc,0.0
mp-1187577,TmCrO3,1.9066999999999998
mp-1212861,Er2(Al3Rh)3,0.0
mp-1219450,Sc2(WO4)3,3.4480999999999997
mp-14012,Cu3P,0.0
mp-14017,K3Sb,0.39360000000000006
mp-16648,LiSn4Rh,0.0
mp-19597,Ca3Mn2(SiO4)3,0.0
mp-20765,NpSi,0.0
mp-23161,NpCl4,0.0
mp-29510,Hg2TeO3,2.3234999999999997
mp-30506,CeHg2,0.0
mp-31756,Ba2FeReO6,0.0
mp-4139,Nb4GaS8,0.0
mp-5353,ErCo3B2,0.0
mp-559875,K3Na2LiTeO6,2.2125999999999997
mp-562631,K2SO4,0.0
mp-567748,Zr2Al3C4,0.0
mp-568714,Bi,0.0
mp-569532,TiCu2P,0.0
mp-571407,UPb,0.0
mp-607225,Mn2Ga5,0.0
mp-622528,Li4Mo3O8,0.0
mp-6301,Ba3CeRu2O9,0.0
mp-6309,La3Cu4(P2O)2,0.0
mp-6319,Na2MgAlF7,6.656
mp-637,YB4,0.0
mp-638084,DyNiGe2,0.0
mp-639659,InCuPt2,0.0
mp-641575,Cr21(WC3)2,0.0
mp-6543,VAg(PSe3)2,0.0
mp-655580,CeCu4Sn,0.0
mp-656152,Gd2Cl3,0.12089999999999979
mp-6595,Sr3CuPtO6,0.0
mp-6603,Sr2CeIrO6,0.0
mp-6622,BaNd2Ti3O10,1.9459999999999997
mp-662575,Sr2EuGaCu2O7,0.0
mp-662714,GdAs2Pd3,0.0
mp-6647,BaYAgSe3,1.3282000000000003
mp-6668,LiTiPO5,3.0591999999999997