task_id,composition,band_gap
mp-1226154,Fe8Cu3Te12(Cl5O16)2,0.0
mp-555,Fe8N,0.0
mp-673174,Fe8N3,0.0
mp-1182503,Fe8O17,0.0
mp-763415,Fe8SiO12,0.4454000000000001
mp-1225266,Fe9B4Ir3,0.0
mp-1225075,Fe9B4Rh3,0.0
mp-1225248,Fe9BP2,0.0
mp-705842,Fe9Cu3O16,0.0
mp-504587,Fe9Cu9S16,0.0
mvc-12205,Fe9O13,0.0
mp-1225104,Fe9PO12,0.0
mp-1224956,FeAg,0.0
mp-20002,FeAg2SnS4,0.0
mp-1184294,FeAg3,0.0
mp-568663,FeAg3(CN)6,0.0
mp-690706,FeAg3H6(C3N4)2,0.0
mp-1184234,FeAgO3,0.0
mp-1096969,FeAgS2,0.0
mp-1096959,FeAgSe2,0.0
mp-1224997,FeAgTe2,0.0
mp-427,FeAs,0.0
mp-1212794,FeAs2Pb2O9,0.0
mp-1181479,FeAs2Pb4(ClO2)4,0.0
mp-1184215,FeAsO3,0.0
mp-1224962,FeAu,0.0
mp-973557,FeAu3,0.0
mp-1080525,FeB,0.0
mp-569376,FeB2,0.0
mp-1079437,FeB4,0.0
mp-1212760,FeBP2NO9,0.0
mp-1190874,FeBi2PO8,0.0
mp-1022732,FeBiAsO,0.0
mp-1225376,FeBiPPbO7,0.0
mp-23232,FeBr3,0.0
mp-1225195,FeC3N3O2,0.0
mp-567933,FeCN2,0.0
mp-18969,FeCO3,0.0
mp-985588,FeCl,0.0
mp-2090,FeCo,0.0
mp-1224992,FeCo(NiS2)4,0.0
mp-1225064,FeCo(RhS2)4,0.0
mp-1225063,FeCo16NiS16,0.0
mp-22015,FeCo2(CN)6,0.0
mp-22300,FeCo2Ge,0.0
mp-1007852,FeCo3,0.0
mp-761579,FeCo3O8,0.0
mp-1224978,FeCo3S8,0.0
mp-771994,FeCo5O12,0.0
mp-1096987,FeCo9,0.0
mp-1224972,FeCoAs4,0.0
mp-1224984,FeCoB,0.0
mp-1224999,FeCoB2,0.0
mp-1225216,FeCoBi2(AsO6)2,0.0
mp-1025047,FeCoGe,0.0
mp-1097012,FeCoO2,0.0
mp-761526,FeCoO4,0.0
mp-1095664,FeCoP,0.0
mp-1224993,FeCoPt2,0.0
mp-1224971,FeCoS2,0.0
mp-1225004,FeCoS4,0.0
mp-1224950,FeCoSb4,0.0
mp-1224966,FeCoSe2,0.0
mp-1224983,FeCoSi2,0.0
mp-1025124,FeCoSn,0.0
mp-1225200,FeCoSn2,0.0
mp-1225052,FeCoSn4,0.0
mp-1224955,FeCoTe2,0.0
mp-1224945,FeCu,0.0
mp-1189156,FeCu(C3N4)2,0.0
mp-775167,FeCu(PO4)2,0.0
mp-1225020,FeCu(RhS2)4,0.0
mp-1225080,FeCu(RhSe2)4,0.0
mp-22413,FeCu2(CN)6,0.0
mp-1204931,FeCu2As3O11,0.0
mp-22053,FeCu2GeS4,0.0
mp-1087471,FeCu2GeSe4,0.0
mp-1225111,FeCu2SbO6,0.0
mp-1025510,FeCu2SiSe4,0.0
mp-21865,FeCu2Sn,0.0
mp-22648,FeCu2SnS4,0.0
mp-22612,FeCu2SnSe4,0.0
mp-1224953,FeCu3,0.0
mp-775297,FeCu3(PO4)4,0.0
mp-1078387,FeCu3S4,0.0
mp-1224980,FeCu3S8,0.0
mp-1224977,FeCu4,0.0
mp-682554,FeCu4Re14(Mo3S20)2,0.0
mp-675830,FeCu5S4,0.0
mp-1105236,FeCu6(SnS4)2,0.0
mp-1225017,FeCu6GeS8,0.0
mp-1196630,FeCu8Sb3S13N6,0.0
mp-642426,FeCuC5N6O,0.0
mp-1203139,FeCuH4S2O13,0.0
mp-1224973,FeCuNi,0.0
mp-1095970,FeCuPd2,0.0
mp-3702,FeCuPt2,0.0
mp-640073,FeCuS2,0.0
mp-505244,FeCuSe2,0.0
mp-1224961,FeCuTe2,0.0
mp-22478,FeGe,0.0
mp-21117,FeGe2,0.0
mp-1184472,FeGe3,0.0
mp-865191,FeGeRu2,0.0
mp-1009077,FeH,0.0
mp-770576,FeH12(SO7)2,0.026600000000000186
mp-743856,FeH2C4N4Cl6O,0.0
mp-1018061,FeH3,0.0
mp-1079939,FeH4,0.0
mp-865922,FeH4Br3N,0.0
mp-626102,FeHO2,1.9340000000000002
mp-1225010,FeHg2O3F5,0.0
mp-1184346,FeHg3,0.0
mp-541913,FeHgC4(SN)4,0.0
mp-1224967,FeIr,0.0
mp-10596,FeIr3,0.0
mp-1224941,FeMo2,0.0
mp-1225013,FeMo3As4,0.0
mp-1225051,FeMo3PdN,0.0
mp-1225033,FeMo3PtN,0.0
mp-27380,FeMo3S4,0.0
mp-1181538,FeMo6C8(NO10)2,0.0
mp-1225057,FeMo6Pd3N2,0.0
mp-1225245,FeMo6Rh3N2,0.0
mp-1225189,FeMoO,0.0
mp-1102843,FeMoP,0.0
mp-6988,FeN,0.0
mp-1080202,FeN2,0.0
mp-1213521,FeN2F5,0.0
mp-1204897,FeN3Cl5,0.0
mp-1080474,FeNCl3,0.0
mp-2213,FeNi,0.0
mp-780106,FeNi(PO4)2,0.0
mp-1225067,FeNi(PS3)2,0.04039999999999999
mp-1072076,FeNi2,0.0
mp-1225094,FeNi2Ge,0.0
mp-1418,FeNi3,0.0
mp-1225439,FeNi3(Mo3N)2,0.0
mp-775077,FeNi3(PO4)4,0.0
mp-1225604,FeNi35S32,0.0
mp-853241,FeNi3Sn2(PO4)6,0.0
mp-1080824,FeNiAs,0.0
mp-1224951,FeNiAs4,0.0
mp-1224960,FeNiB,0.0
mp-1206550,FeNiGe,0.0
mp-631256,FeNiMo,0.0
mp-1225097,FeNiMo3N,0.0
mp-629397,FeNiN,0.0
mp-770086,FeNiO3,0.0
mp-1080653,FeNiP,0.0
mp-1043619,FeNiP2O9,0.0
mp-1224986,FeNiP6,0.0
mp-13463,FeNiPt2,0.0
mp-1224947,FeNiPt6,0.0
mp-1224903,FeNiS2,0.0
mp-1224893,FeNiS4,0.0
mp-1224810,FeNiSb4,0.0
mp-1224875,FeNiSe4,0.0
mp-1025011,FeNiSn,0.0
mp-1224910,FeNiTe4,0.0
mp-850222,FeO2,0.0
mp-863847,FeO3,0.0
mp-1212751,FeP2(PbO5)2,0.0
mp-743814,FeP2H2O9,0.0
mp-1205225,FeP2O9,0.0
mp-566238,FeP2PbO7,3.8160000000000003
mp-1224886,FeP2W,0.0
mp-767277,FePHO5,0.0
mp-25518,FePO4F,0.0
mp-1212855,FePO5,0.0
mp-1224852,FePRh,0.0
mp-5864,FePS3,0.0
mp-973579,FePbO3,0.0
mp-631895,FePbW2,0.0
mp-2831,FePd,0.0
mp-1224793,FePd2,0.0
mp-2260,FePt,0.0
mp-649,FePt3,0.0
mp-1178216,FePtO2,0.0
mp-973534,FeRe,0.0
mp-1224899,FeRe(PbO3)2,0.0
mp-1224924,FeRe2(MoS4)2,0.0
mp-1184298,FeRe3,0.0
mp-1918,FeRh,0.0
mp-1184368,FeRh3,0.0
mp-1224803,FeRu,0.0
mp-1213535,FeRu(NF)6,0.0
mp-505531,FeS,0.0
mp-1213516,FeS2(NO7)2,0.0
mp-1213629,FeS2NO20,0.0
mp-1182041,FeSClO10,0.0
mp-1192775,FeSO5,0.0
mp-2619,FeSb,0.0
mp-20714,FeSb2,0.0
mp-971669,FeSb3,0.0
mp-22369,FeSb6(Pb2S7)2,0.0
mp-623035,FeSbPt,0.0
mp-1206853,FeSbRh2,0.0
mp-1224850,FeSbTe,0.0
mp-20311,FeSe,0.0
mp-1071360,FeSeN,0.0
mp-1189794,FeSi(AgS2)2,0.0
mp-1097398,FeSi2Tc,0.0
mp-1224916,FeSiMo,0.0
mp-1103705,FeSiNi,0.0
mp-1191756,FeSiO4,0.0
mp-3464,FeSiRu2,0.0
mp-862790,FeSiTc2,0.0
mp-22752,FeSn2,0.0
mp-21231,FeSn2(CN)6,3.5469999999999997
mp-1184775,FeSn3,0.0
mp-772443,FeSn3(PO4)6,0.0
mp-554751,FeSnF6,0.0
mp-1225146,FeSnPt,0.0
mp-1018062,FeSnRh2,0.0
mp-636599,FeSnRu2,0.0
mp-631425,FeTc2Cl,0.0
mp-1184276,FeTc2Ge,0.0
mp-21273,FeTe,0.0
mp-1212714,FeTe3O8,0.0
mp-1194242,FeWCl5,0.0
mp-29076,FeWN2,0.0
mp-27163,Ga(Ag3Se2)3,0.0
mp-1232314,Ga(CuN)3,0.0
mp-2885,Ga(MoS2)4,0.0
mp-1213377,Ga(Ni3B2)4,0.0
mp-1200059,Ga11NO17,0.0
mp-1200062,Ga16Rh3,0.0
mp-30665,Ga17Rh10,0.0
mp-1194289,Ga2(Co7B2)3,0.0
mp-1193255,Ga2(Ni7B2)3,0.0
mp-1225030,Ga21Ni5,0.0
mp-1200191,Ga21Rh4,0.0
mp-18561,Ga2AsRh5,0.0
mp-2776,Ga2Au,0.0
mp-571598,Ga2Au7,0.0
mp-1195223,Ga2B3O8,0.0
mp-631553,Ga2BSb,0.0
mp-1018076,Ga2BiAs,0.0
mp-1147573,Ga2Co(SO)2,0.0
mp-1224829,Ga2Co6C,0.0
mp-1184229,Ga2CoIr,0.0
mp-1224798,Ga2CoNi,0.0
mp-865779,Ga2CoRu,0.0
mp-11359,Ga2Cu,0.0
mp-1147755,Ga2Cu(SO)2,0.0
mp-1203611,Ga2Cu3(SeO3)6,0.2477000000000001
mp-34783,Ga2CuO4,0.0
mp-1093625,Ga2CuPd,0.0
mp-616672,Ga2Fe2S5,0.0
mp-1224932,Ga2Fe6C,0.0
mp-1224867,Ga2FeCo,0.0
mp-1225169,Ga2FeNi9,0.0
mp-1078053,Ga2FeSe4,0.0
mp-1212695,Ga2Hg5Se8,0.0
mp-865743,Ga2IrRh,0.0
mp-866041,Ga2IrRu,0.0
mp-1224878,Ga2Ni5Te4,0.0
mp-1224913,Ga2Ni7Ge2,0.0
mp-1184299,Ga2NiRu,0.0
mp-405,Ga2Pd5,0.0
mp-22095,Ga2Pt,0.0
mp-1184318,Ga2RuPt,0.0
mp-867292,Ga2RuRh,0.0
mp-2371,Ga2Te5,0.9570000000000001
mp-631305,Ga2WSe,0.0
mp-977324,Ga3(Ni10B3)2,0.0
mp-1203833,Ga31Mo6,0.0
mp-1184257,Ga3Ag,0.0
mp-1184232,Ga3As,0.0
mp-1184296,Ga3Au,0.0
mp-1184351,Ga3B,0.0
mp-28869,Ga3B4Pt9,0.0
mp-983237,Ga3Bi,0.0
mp-20559,Ga3Co,0.0
mp-1224805,Ga3Co4Ge,0.0
mp-984518,Ga3Cu,0.0
mp-1225352,Ga3Fe4Co8Si,0.0
mp-973875,Ga3Ge,0.0
mp-1224871,Ga3GePt8,0.0
mp-1184268,Ga3Hg,0.0
mp-1189634,Ga3Ir,0.0
mp-1224940,Ga3Ni12Sn,0.0
mp-11397,Ga3Ni2,0.0
mp-1204832,Ga3Ni27B14,0.0
mp-11398,Ga3Ni5,0.0
mp-29749,Ga3Ni5Ge2,0.0
mp-1212686,Ga3O5,0.0
mp-1184292,Ga3P,0.0
mp-1184344,Ga3Pb,0.0
mp-2408,Ga3Pd5,0.0
mp-31467,Ga3Pd7,0.0
mp-1184218,Ga3Pt,0.0
mp-30663,Ga3Pt5,0.0
mp-1188393,Ga3Re,0.0
mp-1188977,Ga3Rh,0.0
mp-1181356,Ga3S2O15,0.0
mp-1184258,Ga3Sb,0.0
mp-1184214,Ga3Se,0.0
mp-1183982,Ga3Si,0.0
mp-1224819,Ga3SiNi4,0.0
mp-1184031,Ga3Sn,0.0
mp-1183998,Ga3Tc,0.0
mp-1184010,Ga3Te,0.0
mp-675954,Ga3Te3As,0.0
mp-1225042,Ga3Te9Pd32,0.0
mp-1203027,Ga40AgMo8,0.0
mp-1204344,Ga40CuMo8,0.0
mp-1204805,Ga40GeMo8,0.0
mp-1195837,Ga40Mo8Au,0.0
mp-1196543,Ga40Mo8C,0.0
mp-1225257,Ga40Mo8S,0.0
mp-1203338,Ga40SnMo8,0.0
mp-1195805,Ga41Mo8,0.0
mp-1079228,Ga4BiAs3,0.0
mp-1197621,Ga4Cu9,0.0
mp-540538,Ga4Fe3,0.0
mp-30655,Ga4Ni3,0.0
mp-1224870,Ga5Ag13,0.0
mp-570920,Ga5Fe6,0.0
mp-1212680,Ga5Ir3,0.0
mp-1095578,Ga5Ni,0.0
mp-30660,Ga5Pd,0.0
mp-1199016,Ga5Pt,0.0
mp-30923,Ga5Rh3,0.0
mp-1103522,Ga5W2,0.0
mp-676349,Ga7(CuSe4)3,0.0
mp-16852,Ga7Ni3,0.0
mp-1106289,Ga7Pd3,0.0
mp-1188512,Ga7Pt3,0.0
mp-28924,Ga8BIr4,0.0
mp-568017,Ga8Cu3W2,0.0
mp-1191262,Ga9Ir2,0.0
mp-21589,Ga9Ni13,0.0
mp-11478,GaAg,0.0
mp-578,GaAg2,0.0
mp-1224795,GaAg3,0.0
mp-1207208,GaAg3F6,0.0
mp-1183979,GaAs3,0.0
mp-1025346,GaAsPd5,0.0
mp-1224900,GaAsRh4,0.0
mp-30379,GaAu,0.0
mp-1202583,GaAu(I4N)2,0.0
mp-30380,GaAu2,0.0
mp-11021,GaAuO2,0.0
mp-1203116,GaB2(PO6)2,0.0
mp-1183974,GaBi3,0.0
mp-1184015,GaC,0.0
mp-1064861,GaC3,0.0
mp-1121,GaCo,0.0
mp-1200291,GaCo(Mo3O20)2,0.0
mp-1018060,GaCo2Ni,0.0
mp-1184009,GaCo3,0.0
mp-1224812,GaCo4,0.0
mp-1224863,GaCo4Ge3,0.0
mp-1097340,GaCoRh2,0.0
mp-1077001,GaCu2,0.0
mp-865798,GaCu3,0.0
mp-1181331,GaCu3HgSe4,0.0
mp-1224832,GaCu4,0.0
mp-1224944,GaCu4Ni15,0.0
mp-1096988,GaCuBr3,0.0
mp-1184005,GaCuNi2,0.0
mp-1184030,GaCuPd2,0.0
mp-644280,GaCuPt2,0.0
mp-862485,GaCuRh2,0.0
mp-1224926,GaFe,0.0
mp-1225232,GaFe19N5,0.0
mp-1224880,GaFe2,0.0
mp-1079848,GaFe2AgTe4,0.0
mp-636212,GaFe2Co,0.0
mp-1225089,GaFe2Co4Si,0.0
mp-622990,GaFe2Ni,0.0
mp-1212637,GaFe3N,0.0
mp-1224889,GaFe4,0.0
mp-1225114,GaFe4Co8Si3,0.0
mp-1224930,GaFe7N2,0.0
mp-30551,GaFeCo2,0.0
mp-1225119,GaFeGe,0.0
mp-865247,GaFeIr2,0.0
mp-865170,GaFeRh2,0.0
mp-1184055,GaFeRu2,0.0
mp-1224769,GaGe,0.0
mp-1212670,GaGe(MoS2)4,0.0
mp-1184140,GaGe3,0.0
mp-1183980,GaGeO3,0.0
mp-1224823,GaGePt6,0.0
mp-865895,GaGeRu2,0.0
mp-1224830,GaGeTe2,0.0
mp-1183988,GaH,0.0
mp-1183993,GaH3,0.0
mp-1183987,GaHg3,0.0
mp-1178231,GaHgO2,0.0
mp-11388,GaIr,0.0
mp-1079635,GaMo2C,0.0
mp-2377,GaMo3,0.0
mp-1224843,GaMo4(SeS)4,0.0
mp-15862,GaMo4CS8,0.0
mp-1192081,GaNCl4,0.0
mp-1941,GaNi,0.0
mp-1212709,GaNi10P3,0.0
mp-570904,GaNi2,0.0
mp-1224885,GaNi2Ge3,0.0
mp-1224791,GaNi2Pt,0.0
mp-815,GaNi3,0.0
mp-1206991,GaNi3C,0.0
mp-1224915,GaNi4Ge3,0.0
mp-1224860,GaNi6Ge,0.0
mp-1194536,GaNi9B8,0.0
mp-1183983,GaNiO3,0.0
mp-1096493,GaNiPt2,0.0
mp-866037,GaNiRh2,0.0
mp-1183990,GaO,0.0
mp-1212646,GaO2,0.0
mp-1181293,GaO3,0.0
mp-1225237,GaP2C3N2O8F,0.0
mp-1205202,GaP2O9,0.0
mp-1181318,GaPNO5,0.0
mp-1025301,GaPPd5,0.0
mp-1025270,GaPPt5,0.0
mp-1184014,GaPb3,0.0
mp-1078526,GaPd,0.0
mp-1869,GaPd2,0.0
mp-1184209,GaPd3,0.0
mp-1025551,GaPt,0.0
mp-2223,GaPt2,0.0
mp-862621,GaPt3,0.0
mp-1017563,GaPt3C,0.0
mp-1178335,GaPtO2,0.0
mp-1224777,GaRe,0.0
mp-631572,GaReAs,0.0
mp-1097303,GaReGe2,0.0
mp-1096383,GaReTc2,0.0
mp-2444,GaRh,0.0
mp-1184265,GaRh3,0.0
mp-22320,GaRu,0.0
mp-1212631,GaS2NO8,0.0
mp-1184224,GaSb3,0.0
mp-680721,GaSe2,0.0
mp-1184252,GaSi3,0.0
mp-1224834,GaSiNi6,0.0
mp-1184206,GaSiO3,0.0
mp-1096427,GaSiTc2,0.0
mp-1184266,GaSn3,0.0
mp-1184243,GaSnO3,0.0
mp-1097411,GaSnRu2,0.0
mp-1224842,GaSnSe2,0.0
mp-1093867,GaTc2Ge,0.0
mp-14432,GaTe4(MoSe)4,0.0
mp-1184220,GaTeO3,0.0
mp-643271,Gd(Al10Cr)2,0.0
mp-973553,Gd(Al2Cu)4,0.0
mp-568693,Gd(Al3Ni)3,0.0
mp-1192913,Gd(Al5Ru)2,0.0
mp-1104806,Gd(AlC)3,0.0
mp-1225943,Gd(AlCr)6,0.0
mp-1225036,Gd(AlCu)6,0.0
mp-754689,Gd(AlGe)2,0.0
mp-8651,Gd(AlSi)2,0.0
mp-1080176,Gd(BC)2,0.0
mp-1079837,Gd(BOs)2,0.0
mp-1106078,Gd(BRh)4,0.0
mp-1095164,Gd(BRu)2,0.0
mp-756698,Gd(BiO2)4,0.0
mp-1181407,Gd(CO3)2,0.0
mp-1196375,Gd(Cd10Ni)2,0.0
mp-645286,Gd(Co2B)6,0.0
mp-610530,Gd(CoB)2,0.0
mp-1181496,Gd(CoB)4,0.0
mp-542985,Gd(CoSi)2,0.0
mp-610787,Gd(CrSi)2,0.0
mp-1095106,Gd(CuSn)2,0.0
mp-1225229,Gd(Fe5Si)2,0.0
mp-637965,Gd(FeGe)2,0.0
mp-1212761,Gd(FeP3)4,0.0
mp-1212901,Gd(Ga2Fe)4,0.0
mp-1225497,Gd(GaFe)6,0.0
mp-1102792,Gd(Ge2Rh3)2,0.0
mp-1185278,Gd(Mg4Al3)4,0.0
mp-1204079,Gd(Ni2B)6,0.0
mp-582433,Gd(NiAs)2,0.0
mp-646399,Gd(NiGe)2,0.0
mp-569296,Gd(NiSb)2,0.0
mp-672215,Gd(PRu)2,0.0
mp-1105253,Gd(Re2Si)2,0.0
mp-22615,Gd(SiAu)2,0.0
mp-20700,Gd(SiIr)2,0.0
mp-20956,Gd(SiNi)2,0.0
mp-1225143,Gd(SiNi5)2,0.0
mp-21408,Gd(SiOs)2,0.0
mp-19753,Gd(SiPd)2,0.0
mp-637220,Gd(SiPt)2,0.0
mp-21240,Gd(SiRh)2,0.0
mp-569302,Gd(SiRu)2,0.0
mp-1204825,Gd(Zn10Co)2,0.0
mp-1213266,Gd12Co6Pb,0.0
mp-569472,Gd2(Al3Ir)3,0.0
mp-1213364,Gd2(Al3Rh)3,0.0
mp-680207,Gd2(FeB)7,0.0
mp-866782,Gd2(Ga3Co)3,0.0
mp-1213497,Gd2(Ga3Ir)3,0.0
mp-554558,Gd2(MoO4)3,0.0
mp-582406,Gd2(Zn2Ge)3,0.0
mp-1184381,Gd2AgAu,0.0
mp-1184352,Gd2AgHg,0.0
mp-1184371,Gd2AgIr,0.0
mp-1006068,Gd2AgRh,0.0
mp-1184415,Gd2AgRu,0.0
mp-1190462,Gd2Al3Ge4,0.0
mp-1078369,Gd2Al4CoGe2,0.0
mp-638442,Gd2Al6Si4Au,0.0
mp-637030,Gd2Al6Si4Pt,0.0
mp-1184403,Gd2AlCd,0.0
mp-1225145,Gd2AlFe3,0.0
mp-20816,Gd2AlGe2,0.0
mp-1190055,Gd2AlGe6,0.0
mp-1071506,Gd2AlNi2,0.0
mp-1184427,Gd2AlZn,0.0
mp-28366,Gd2B5,0.0
mp-1202304,Gd2B6Os,0.0
mp-1070662,Gd2BiO2,0.0
mp-1224869,Gd2C,0.0
mp-1189998,Gd2C3,0.0
mp-28522,Gd2CBr,0.0
mp-28638,Gd2CCl,0.0
mp-28724,Gd2CI,0.0
mp-1184362,Gd2CdHg,0.0
mp-1184514,Gd2CdIn,0.0
mp-754093,Gd2CdO4,1.6159999999999999
mp-603326,Gd2CdPd2,0.0
mp-1201816,Gd2Co17,0.0
mp-1206201,Gd2Co2I,0.0
mp-1224781,Gd2CoB3,0.0
mp-1225255,Gd2CoNi3,0.0
mp-1080595,Gd2CoSi2,0.0
mp-1078248,Gd2Cr2C3,0.0
mp-1184435,Gd2CuAu,0.0
mp-4860,Gd2CuO4,0.0
mp-1184428,Gd2CuOs,0.0
mp-1184422,Gd2CuRu,0.0
mp-1191833,Gd2Fe12P7,0.0
mp-1198327,Gd2Fe14B,0.0
mp-1197388,Gd2Fe14C,0.0
mp-1196805,Gd2Fe17,0.0
mp-1191346,Gd2Fe17C3,0.0
mp-1191093,Gd2Fe17H3,0.0
mp-1225193,Gd2Fe17N2,0.0
mp-567844,Gd2Fe2I,0.0
mp-1224923,Gd2Fe5Si8,0.0
mp-1102482,Gd2Ga8Co,0.0
mp-1184305,Gd2GaAg,0.0
mp-1206452,Gd2GeBr2,0.0
mp-638079,Gd2In,0.0
mp-1224988,Gd2InAg,0.0
mp-639160,Gd2InGe2,0.0
mp-1184476,Gd2InHg,0.0
mp-1076993,Gd2InNi2,0.0
mp-1184354,Gd2IrAu,0.0
mp-866029,Gd2IrPd,0.0
mp-865436,Gd2IrRh,0.0
mp-1184393,Gd2IrRu,0.0
mp-865078,Gd2Mg,0.0
mp-1184333,Gd2MgAl,0.0
mp-1184409,Gd2MgCd,0.0
mp-19945,Gd2MgGe2,0.0
mp-864748,Gd2MgIn,0.0
mp-1188236,Gd2MgIrO6,0.0
mp-1205657,Gd2MgNi2,0.0
mp-1184399,Gd2MgRu,0.0
mp-1205813,Gd2MgSi2,0.0
mp-865316,Gd2MgTl,0.0
mp-1193010,Gd2Mn17C3,0.0
mp-636619,Gd2MnGa6,0.0
mp-583574,Gd2Mo(SeO4)3,2.7362
mp-12039,Gd2Mo2C3,0.0
mp-642754,Gd2Mo2O7,0.0
mp-1196603,Gd2Nb3Ge4,0.0
mp-580102,Gd2Ni17,0.0
mp-1206945,Gd2Ni2Sn,0.0
mp-669713,Gd2Ni7,0.0
mp-1232425,Gd2NiIr,0.0
mp-1184370,Gd2NiRu,0.0
mp-1212785,Gd2NiRuO6,0.0
mp-772787,Gd2P4O13,3.2969999999999997
mp-1225969,Gd2P7Rh12,0.0
mp-1185587,Gd2PdRh,0.0
mp-866052,Gd2PdRu,0.0
mp-1025361,Gd2Re2Si2C,0.0
mp-1198764,Gd2Re3Si5,0.0
mp-864979,Gd2ReC2,0.0
mp-505216,Gd2Ru2O7,0.0
mp-1184387,Gd2RuRh,0.0
mp-1224680,Gd2SbO2,0.0
mp-1213448,Gd2Sc3Ge4,0.0
mp-1213579,Gd2Sc3Si4,0.0
mp-1224874,Gd2Si3,0.0
mp-1224775,Gd2Si3Ni,0.0
mp-1080661,Gd2SnAu2,0.0
mp-1226218,Gd2Ti12(CuO4)9,0.0
mp-1224741,Gd2TiCuO6,0.0
mp-579628,Gd2Tl,0.0
mp-1184366,Gd2TlAg,0.0
mp-866608,Gd2TlCd,0.0
mp-1184448,Gd2TlHg,0.0
mp-1184390,Gd2TlZn,0.0
mp-1202826,Gd2US5,0.0
mp-1198013,Gd2USe5,0.0
mp-1224733,Gd2ZnAg,0.0
mp-1184388,Gd2ZnGa,0.0
mp-1184500,Gd2ZnHg,0.0
mp-1184470,Gd2ZnIn,0.0
mp-1184416,Gd2ZnRh,0.0
mp-866217,Gd2ZnRu,0.0
mp-580327,Gd3(AlNi3)2,0.0
mp-1178246,Gd3(BiO4)2,0.0
mp-1224782,Gd3(BrO3)2,0.0
mp-1078863,Gd3(CoGe2)2,0.0
mp-621619,Gd3(CuGe)4,0.0
mp-1191116,Gd3(GaNi3)2,0.0
mp-28826,Gd3(MnC3)2,0.0
mp-1213489,Gd3(P3Pd10)2,0.0
mp-1192140,Gd3(SiNi3)2,0.0
mp-1185588,Gd3Ag,0.0
mp-1184417,Gd3Al,0.0
mp-1199765,Gd3Al2(Ni2H3)3,0.0
mp-580539,Gd3AlC,0.0
mp-1069273,Gd3AlN,0.0
mp-1192190,Gd3AlVS7,0.0
mp-1184461,Gd3Au,0.0
mp-1190670,Gd3B7W,0.0
mp-1212672,Gd3BBr3,0.0
mp-1224726,Gd3Bi(Ru2O7)2,0.0
mp-1103896,Gd3BiO3,0.0
mp-28133,Gd3CCl3,0.0
mp-1104611,Gd3CI3,0.0
mp-1184421,Gd3Cd,0.0
mp-1202982,Gd3Co4Ge13,0.0
mp-1202112,Gd3Co4Sn13,0.0
mp-1226688,Gd3Cu2Te7,0.0
mp-1184431,Gd3Dy,0.0
mp-1184453,Gd3Er,0.0
mp-1224942,Gd3ErNi4,0.0
mp-585960,Gd3Fe5O12,0.0
mp-1184401,Gd3Ga,0.0
mp-1207153,Gd3GaC,0.0
mp-1197897,Gd3Ge13Ir4,0.0
mp-1202465,Gd3Ge13Os4,0.0
mp-1197955,Gd3Ge13Ru4,0.0
mp-1191917,Gd3GeO8,0.0
mp-1184498,Gd3Ho,0.0
mp-1184423,Gd3I,0.0
mp-1184479,Gd3In,0.0
mp-20501,Gd3InC,0.0009000000000001227
mp-637378,Gd3InN,0.0
mp-1184496,Gd3Lu,0.0
mp-1225060,Gd3Mn3Ga2Si,0.0
mp-976437,Gd3MnB7,0.0
mp-651160,Gd3NCl6,1.968
mp-866774,Gd3Ni19B10,0.0
mp-567291,Gd3OsO7,0.0
mp-647029,Gd3P4Pd7,0.0
mp-19958,Gd3PbC,0.0
mp-1106170,Gd3Pt,0.0
mp-1190894,Gd3ReB7,0.0
mp-30137,Gd3ReO8,1.6219999999999999
mp-1212641,Gd3Sb4,0.0
mp-1224776,Gd3Sc2S7,0.0
mp-672292,Gd3Se4,0.0
mp-1194050,Gd3Si2S8Br,1.2690000000000001
mp-1212738,Gd3SiBr3,0.0
mp-1207074,Gd3SnC,0.0
mp-569019,Gd3Ti2MnSi3,0.0
mp-1212783,Gd3TiS6,0.0
mp-1207135,Gd3TlC,0.0
mp-1184469,Gd3Y,0.0
mp-1225167,Gd3Y3Fe23,0.0
mp-757331,Gd3Y5O12,0.0
mp-1184460,Gd3Zn,0.0
mp-1212534,Gd3Zn5Ge,0.0
mp-29821,Gd4B3C4,0.0
mp-1203227,Gd4C2Cl3,0.0
mp-1225806,Gd4Co3,0.0
mp-1198624,Gd4CoB13,0.0
mp-1224964,Gd4Cu5P7,0.0
mp-1225869,Gd4Fe34C3,0.0
mp-1189271,Gd4Ga12Pd,0.0
mp-866687,Gd4Ga16Co3,0.0
mp-1192794,Gd4InIr,0.0
mp-1191587,Gd4MgRh,0.0
mp-1213042,Gd4MgRu,0.0
mp-866397,Gd4Ni13C4,0.0
mp-1197241,Gd4NiB13,0.0
mp-20831,Gd4Sb3,0.0
mp-1213412,Gd4Si2Ni2Bi,0.0
mp-757215,Gd5(AsO6)2,0.0
mp-866789,Gd5(C2Cl)3,0.0
mp-673761,Gd5(RuO7)2,0.0
mp-1212669,Gd5B3O13,0.0
mp-581831,Gd5CuBi3,0.0
mp-1198083,Gd5Ge4,0.0
mp-1199296,Gd5P12Ru19,0.0
mp-1106250,Gd5Pb3,0.0
mp-1199486,Gd5Si4,0.0
mp-1200816,Gd6(Ga3Co)7,0.0
mp-621024,Gd6C3Cl5,0.0
mp-1194558,Gd6Fe23,0.0
mp-1192643,Gd6Mg23C,0.0
mp-1194710,Gd6Mn23,0.0
mp-1193017,Gd6Zn23,0.0
mp-1213341,Gd7(BrO6)3,0.0
mp-1225213,Gd8MgAlNi2,0.0
mp-1190934,Gd8Rh5C12,0.0
mp-1224996,Gd8Sb3O8,0.0
mp-542779,GdAg,0.0
mp-1184474,GdAg3,0.0
mp-9341,GdAgGe,0.0
mp-1224681,GdAgSn2,0.0
mp-1078585,GdAl,0.0
mp-530682,GdAl22O34,0.0
mp-630019,GdAl2Ni,0.0
mp-865411,GdAl3,0.0
mp-1076933,GdAl3Cu,0.0
mp-1212604,GdAl3Ni2,0.0
mp-672244,GdAl4Ge2Au,0.0
mp-1095605,GdAl4Ni,0.0
mp-1080612,GdAlCu,0.0
mp-1224679,GdAlCu4,0.0
mp-1224663,GdAlGa,0.0
mp-1077056,GdAlGe,0.0
mp-1101090,GdAlNi,0.0
mp-1224779,GdAlNi4,0.0
mp-1212705,GdAlRh,0.0
mp-1224619,GdAlSi,0.0
mp-1018704,GdAlZn,0.0
mp-1224639,GdAlZnGe2,0.0
mp-1189241,GdAs2Au,0.0
mp-662714,GdAs2Pd3,0.0
mp-1101897,GdAsS,0.0
mp-635426,GdAu,0.0
mp-1063174,GdAu2,0.0
mp-1196045,GdAu3C6(N2O)3,0.0
mp-1006223,GdB12,0.0
mp-425,GdB2,0.0
mp-1077270,GdB2Ir3,0.0
mp-1105563,GdB4,0.0
mp-1192291,GdB4Ru,0.0
mp-1071879,GdBC,0.0
mp-1194291,GdBe13,0.0
mp-1184468,GdBeO3,0.0
mp-614481,GdBi,0.0
mp-1184501,GdBi3,0.0
mp-1076916,GdBiPd,0.0
mp-620271,GdBiPt,0.0
mp-1064427,GdBr,0.0
mp-1206663,GdBrO2,0.0
mp-12765,GdC2,0.0
mp-567572,GdCBr,0.0
mp-1031,GdCd,0.0
mp-1184477,GdCdAg2,0.0
mp-866167,GdCdAu2,0.0
mp-865745,GdCdHg2,0.0
mp-623988,GdCdPd,0.0
mp-866034,GdCdPd2,0.0
mp-1184494,GdCdPt2,0.0
mp-1184998,GdCdRh2,0.0
mp-1184482,GdCl,0.0
mp-542633,GdCo2,0.0
mp-1077521,GdCo2B2C,0.0
mp-1225353,GdCo2Ni2B,0.0
mp-13268,GdCo4B,0.0
mp-1077071,GdCo5,0.0
mp-1198946,GdCo5P3,0.0
mp-1193590,GdCo9Si4,0.0
mp-1018146,GdCoC2,0.0
mp-1077133,GdCoSi,0.0
mp-1069379,GdCoSi3,0.0
mp-614455,GdCu,0.0
mp-1077933,GdCu2,0.0
mp-1072041,GdCu4Au,0.0
mp-1025013,GdCu4Pd,0.0
mp-636253,GdCu5,0.0
mp-1224581,GdCu5Se4,0.0
mp-1212701,GdCu5Sn,0.0
mp-1224764,GdCu5Te4,0.0
mp-13212,GdCuGe,0.0
mp-1184481,GdCuO3,0.0
mp-1018705,GdCuPb,0.0
mp-607182,GdCuSi,0.0
mp-21436,GdCuSn,0.0
mp-1224750,GdDy,0.0
mp-1224739,GdDy3Ni4,0.0
mp-1224645,GdDyAl4,0.0
mp-1184659,GdDyIn2,0.0
mp-1184518,GdDyIr2,0.0
mp-1224615,GdDyNi2,0.0
mp-1184497,GdDyRh2,0.0
mp-1184527,GdDyTl2,0.0
mp-1184524,GdDyZn2,0.0
mp-975612,GdEr3,0.0
mp-1190803,GdEr4Al15,0.0
mp-1224902,GdErAl6,0.0
mp-1224689,GdErCo4,0.0
mp-1184516,GdErHg2,0.0
mp-1184762,GdErIn2,0.0
mp-1184499,GdErIr2,0.0
mp-1184815,GdErRh2,0.0
mp-1184790,GdErRu2,0.0
mp-1184521,GdErZn2,0.0
mp-1205624,GdFe2SiC,0.0
mp-1188097,GdFe4(CuO4)3,0.0
mp-1181137,GdFe5,0.0
mp-652036,GdFe5P3,0.0
mp-1078679,GdFeAsO,0.0
mp-866656,GdFeB4,0.0
mp-1018176,GdFeC2,0.0
mp-1224630,GdFeNi4,0.0
mp-20353,GdGa,0.0
mp-19773,GdGa2,0.0
mp-648086,GdGa2Co,0.0
mp-865386,GdGa3,0.0
mp-1212456,GdGa3Os,0.0
mp-1104851,GdGa3Ru,0.0
mp-1104838,GdGa6,0.0
mp-1207031,GdGaI,0.0
mp-1106136,GdGaPd2,0.0
mp-863249,GdGaRh2,0.0
mp-19918,GdGe,0.0
mp-1072982,GdGe2,0.0
mp-1102413,GdGeIr,0.0
mp-1103746,GdGePt,0.0
mp-1095527,GdGeRh,0.0
mp-24092,GdH2,0.0
mp-505686,GdH3,0.0
mp-1078842,GdHg3,0.0
mp-1184743,GdHo3,0.0
mp-1224644,GdHoAl6,0.0
mp-1184535,GdHoIr2,0.0
mp-1184533,GdHoTl2,0.0
mp-21005,GdIn,0.0
mp-1213603,GdIn2Cu9,0.0
mp-1191355,GdIn2Ni9,0.0
mp-20258,GdIn3,0.0
mp-1206181,GdIn5Rh,0.0
mp-1080496,GdInAu,0.0
mp-1065288,GdInAu2,0.0
mp-614489,GdInCu2,0.0
mp-1206797,GdInNi4,0.0
mp-624070,GdInPd2,0.0
mp-582029,GdInPt,0.0
mp-1072097,GdInPt4,0.0
mp-623043,GdInRh,0.0
mp-1184543,GdLuAg2,0.0
mp-1224606,GdLuAl4,0.0
mp-1184534,GdLuCd2,0.0
mp-1184522,GdLuCu2,0.0
mp-1184485,GdLuIr2,0.0
mp-1185598,GdLuRh2,0.0
mp-1184510,GdLuRu2,0.0
mp-2636,GdMg,0.0
mp-21049,GdMg2,0.0
mp-567249,GdMg2Ni9,0.0
mp-20534,GdMg3,0.0
mp-1224816,GdMg3Ni8,0.0
mp-1184490,GdMgAg2,0.0
mp-580154,GdMgAu,0.0
mp-1184513,GdMgAu2,0.0
mp-865590,GdMgCd2,0.0
mp-574004,GdMgGa,0.0
mp-1184495,GdMgHg2,0.0
mp-1101056,GdMgIn,0.0
mp-977381,GdMgNi4,0.0
mp-20332,GdMgPd,0.002600000000000157
mp-866059,GdMgRh2,0.0