task_id,composition,band_gap
mp-1016304,CsMg6B,0.0
mp-1100174,CsMg6Bi,0.0
mp-1098071,CsMg6C,0.0
mp-1099227,CsMg6CO8,0.0
mp-1099306,CsMg6Co,0.0
mp-1099262,CsMg6CrO8,0.0
mp-1099285,CsMg6Cu,0.0
mp-1100173,CsMg6Fe,0.0
mp-1016572,CsMg6Ga,0.0
mp-1099261,CsMg6GaO8,0.0
mp-1099119,CsMg6Mn,0.0
mp-1017097,CsMg6Mo,0.0
mp-1017109,CsMg6Nb,0.0
mp-1016372,CsMg6Sb,0.0
mp-1021157,CsMg6Si,0.0
mp-1021419,CsMg6Ti,0.0
mp-1098079,CsMg6V,0.0
mp-1100169,CsMg6W,0.0
mp-1099223,CsMg6WO8,0.0
mp-1022712,CsMg6Zn,0.0
mp-1225922,CsMgAlF6,6.8370000000000015
mp-1213043,CsMgAs(H3O2)2,0.0
mp-984756,CsMgO3,0.0
mp-863692,CsMn(CN)3,0.0
mp-1226351,CsMn2(PO3)6,0.0
mp-1029801,CsMn2N3,0.0
mp-1077053,CsMnBi,0.0
mp-1228881,CsMnCuF6,0.0
mp-1077378,CsMnP,0.0
mp-1207359,CsMnSe2,0.0
mp-1207341,CsMnTe2,0.0
mp-1225934,CsMnVF6,0.0
mp-1199497,CsMo3I7,1.8869999999999998
mp-5883,CsMo6Se7,0.0
mp-1147716,CsMoC6,0.0
mp-1080845,CsMoN2,0.0
mp-1183917,CsMoO3,0.0
mp-1059879,CsN,0.0
mp-1095650,CsNa2,0.0
mp-640321,CsNa2Ge17,0.0
mp-4877,CsNa2Si17,0.0
mp-1185541,CsNa3,0.0
mp-997591,CsNa7Ta8O24,0.0
mp-1226662,CsNaEuNb5O15,0.0
mp-1099338,CsNaMg6,0.0
mp-1098107,CsNaMg6O7,0.0
mp-1183929,CsNaO3,0.0
mp-8658,CsNaSe,2.027
mp-1213520,CsNb3(PO5)3,0.0
mp-11980,CsNbF6,5.2029999999999985
mp-1183961,CsNd,0.0
mp-1226879,CsNd(PO3)4,5.594399999999999
mp-1183944,CsNd3,0.0
mp-1183922,CsNdO3,0.0
mp-1228875,CsNiP,0.0
mp-862802,CsNpCuS3,0.0
mp-1183933,CsNpO3,0.0
mp-1441,CsO2,0.0
mp-1119132,CsOsN2,0.0
mp-1183914,CsOsO3,0.0
mp-679983,CsP4N7,3.661599999999999
mp-1095630,CsPO4,0.0
mp-1183989,CsPb3,0.0
mp-1185545,CsPbO3,0.0
mp-998307,CsPdBr3,0.0
mp-1207302,CsPdF3,0.0
mp-1183913,CsPdO3,0.0
mp-1183964,CsPm,0.0
mp-1183946,CsPr3,0.0
mp-1183919,CsPrO3,0.0
mp-1213235,CsPtBr3,0.0
mp-1225895,CsRb,0.0
mp-1197177,CsRb14Tl27,0.0
mp-1111045,CsRb2AlF6,5.8287999999999975
mp-1228855,CsRb2Au7,0.0
mp-1111783,CsRb2AuBr6,0.0
mp-1113412,CsRb2AuCl6,0.0
mp-1111043,CsRb2NbF6,0.0
mp-1111455,CsRb2PdF6,0.0
mp-1111707,CsRb2ScCl6,4.0939999999999985
mp-7380,CsRb2SiF7,5.487299999999999
mp-1111452,CsRb2TaF6,0.0
mp-1111392,CsRb2TiF6,0.0
mp-1185559,CsRb3,0.0
mp-1009547,CsRbAs,0.0
mp-1099231,CsRbMg14O15,1.9909999999999999
mp-1098082,CsRbMg6,0.0
mp-1009541,CsRbN,0.0
mp-1183926,CsRbO3,0.0
mp-9632,CsReF6,0.0
mp-1097067,CsReN2,0.0
mp-1198675,CsRu2C8(ClO4)2,0.0
mp-1118911,CsRuN2,0.0
mp-1183971,CsRuO3,0.0
mp-561681,CsSO3,5.110399999999999
mp-1195448,CsSb(SO4)2,4.089
mp-1185561,CsSbO3,0.0
mp-27359,CsScCl3,0.0
mp-1225961,CsScCuF6,0.0
mp-1058331,CsSe,0.0
mp-998415,CsSeBr3,0.0
mp-1102197,CsSeO4,0.0
mp-1213166,CsSmBr3,0.0
mp-567939,CsSmCl3,0.0
mp-1205876,CsSmI3,0.0
mp-1184022,CsSmO3,0.0
mp-984745,CsSnO3,0.0
mp-1184035,CsSr3,0.0
mp-1183972,CsSrO3,0.0
mp-680159,CsTa6PbCl18,0.0
mp-555592,CsTaPS6,0.0
mp-28449,CsTbF5,0.0
mp-1185551,CsTbO3,0.0
mp-18193,CsTe7Mo6,0.0
mp-1183976,CsTeO3,0.0
mp-1183997,CsThO3,0.0
mp-778180,CsTi(NbCl3)6,0.0
mp-1228812,CsTi2(CuTe4)2,0.0
mp-541318,CsTi3Si2P6O25,0.0
mp-867568,CsTi6O12,0.0
mp-867522,CsTi8O16,0.0
mp-22962,CsTiBr3,0.0
mp-677489,CsTiCuOF5,0.0
mp-567698,CsTiI3,0.0
mp-1183977,CsTiO3,0.0
mp-1193610,CsTl(SO5)2,0.0
mp-1228857,CsTlCuF6,0.0
mp-1112542,CsTlI3,0.0
mp-1185544,CsTlO3,0.0
mp-1206103,CsTmBr3,0.0
mp-579768,CsTmCl3,0.0
mp-561722,CsTmCoS3,0.0
mp-1207081,CsTmH3,0.0
mp-1213177,CsTmI3,0.0
mp-1194326,CsTmSiS4,3.0460000000000003
mp-1197882,CsU2(AsO9)2,0.0
mp-13348,CsUCuS3,0.0
mp-7151,CsUCuSe3,0.0
mp-20219,CsUCuTe3,0.0
mp-617298,CsUTiTe5,0.0
mp-619820,CsV(MoO4)2,0.0
mp-1070912,CsV2S2O,0.0
mp-985699,CsV5S8,0.0
mp-1147638,CsVC6,0.0
mp-1229021,CsVCuF6,0.0
mp-12324,CsVP2S7,0.0
mp-984762,CsY,0.0
mp-1213356,CsYC4O9,0.338
mp-1035953,CsYMg14O16,0.0
mp-1213408,CsYb(MoO4)2,0.0
mp-1213149,CsYb(WO4)2,0.0
mp-1190671,CsYb2Cu3Se5,0.0
mp-1183999,CsYb3,0.0
mp-615776,CsYb3F10,0.0
mp-568594,CsYb3Se4,0.0
mp-561685,CsYbCoS3,0.0
mp-8398,CsYbF3,7.0490999999999975
mp-1185564,CsYbO3,0.0
mp-9090,CsYbS2,0.0
mp-12325,CsYbSe2,0.0
mp-1213051,CsYbZnTe3,0.0
mp-1228983,CsZn8,0.0
mp-1227847,CsZr18(PI14)3,0.0
mp-1189615,CsZrUTe5,0.0
mp-1178387,Cu(AgO)2,0.0
mp-4870,Cu(BO2)2,0.0
mp-1225844,Cu(Bi4Ir)3,0.0
mp-505042,Cu(BiO2)2,0.0
mp-1069055,Cu(BrN)2,0.22699999999999998
mp-1181522,Cu(BrN3)2,0.0
mp-556202,Cu(CO)4,0.0
mp-1181749,Cu(CO4)2,0.0
mp-1213144,Cu(Cl2O)2,0.0
mp-1079516,Cu(ClO)2,0.0
mp-1202347,Cu(ClO7)2,0.0
mp-505105,Cu(HO)2,0.0
mp-1232320,Cu(HgN)2,0.0
mp-1079602,Cu(IN)4,0.0
mp-1205922,Cu(IN3)2,0.0
mp-15065,Cu(IrS2)2,0.0
mp-675745,Cu(Mo3S4)2,0.0
mp-1104894,Cu(Mo3Se4)2,0.0
mp-1079782,Cu(N3Cl)2,0.0
mp-1103827,Cu(NF2)2,0.0
mp-1213366,Cu(NO)3,0.0
mp-769689,Cu(NiO2)2,0.0
mp-17224,Cu(PO3)2,0.0
mp-4409,Cu(RhO2)2,0.0
mp-15613,Cu(RhS2)2,0.0
mp-15614,Cu(RhSe2)2,0.0
mp-5831,Cu(SbO3)2,0.0
mp-1184041,Cu(SnS2)4,0.0
mp-756573,Cu(TeO3)4,0.0
mp-757768,Cu10Bi25O48,0.0
mp-1225831,Cu10N3,0.0
mp-30597,Cu10Sn3,0.0
mp-1105864,Cu11PdN4,0.0
mp-675278,Cu11S16,0.0
mp-684964,Cu11S20,0.0
mp-30596,Cu11Sb3,0.0
mp-504753,Cu12As4S13,0.0
mp-1226426,Cu12Mo3S5O36,0.0
mp-1188468,Cu12PdN4,0.0
mp-1225921,Cu12Sb3AsS16,0.0
mp-647164,Cu12Sb4S13,0.0
mp-684621,Cu13I15,0.0
mp-32857,Cu13Se8,0.0
mp-685100,Cu14I19,0.0
mp-14266,Cu15Si4,0.0
mp-685158,Cu16I19,0.0
mp-684605,Cu17Se10,0.0
mp-684970,Cu19Se11,0.0
mp-1225980,Cu19Sn16,0.0
mp-686109,Cu23(Sb4S13)2,0.0
mp-1225855,Cu23PdN8,0.0
mp-1232365,Cu27CO,0.0
mp-684606,Cu27Se20,0.0
mp-685189,Cu29Se19,0.0
mp-4362,Cu2Ag2O3,0.0
mp-1093618,Cu2AgAu,0.0
mp-1225882,Cu2AgO4,0.0
mp-7474,Cu2As,0.0
mp-1198068,Cu2As(HO3)2,0.0
mp-554298,Cu2As2O7,0.0
mp-1213371,Cu2As2PbO10,0.0
mp-617283,Cu2AsClO4,0.0
mvc-15744,Cu2B2C,0.0
mp-1225826,Cu2B3Ir4,0.0
mp-1225851,Cu2Bi3Sb3O14,0.0
mp-669361,Cu2BiAsO6,0.0
mp-617247,Cu2BiPO6,0.0
mp-1095679,Cu2BrO3,0.0
mp-1198809,Cu2CO5,0.0
mp-23516,Cu2Cl2O,0.0
mp-1190990,Cu2ClO3,0.0
mp-1096932,Cu2GeI6,0.0
mp-9600,Cu2GeO4,0.0
mp-1147769,Cu2GeS4,0.0
mvc-13140,Cu2GeSe4,0.0
mp-12806,Cu2GeTe3,0.0
mp-504588,Cu2H2CO5,0.0
mp-766274,Cu2H3NO6,0.0
mp-686268,Cu2H4C4N3O,0.0
mp-6820,Cu2Hg2SF6,0.0
mp-12855,Cu2HgGeSe4,0.0
mp-1197496,Cu2I4N2O,0.0
mp-1095489,Cu2IO3,0.0
mp-571054,Cu2Mo3Se4,0.0
mp-1200069,Cu2MoSeO7,0.0
mp-1147700,Cu2N,0.0
mp-761502,Cu2Ni11O13,0.0
mp-1225788,Cu2NiSb,0.0
mp-4367,Cu2NiSn,0.0
mp-1225885,Cu2NiSnSe4,0.0
mp-771359,Cu2O3,0.0
mp-3638,Cu2P2O7,0.0
mp-26532,Cu2P3O10,0.0
mp-510654,Cu2PHO5,0.0
mp-17281,Cu2PO4,0.0
mp-504476,Cu2PO4F,0.0
mp-1203235,Cu2PO5,0.0
mp-1001022,Cu2PPd2,0.0
mp-1193833,Cu2PbSe2(ClO3)2,0.0
mp-1212900,Cu2Pd3Se4,0.0
mp-862256,Cu2PdAu,0.0
mp-4386,Cu2SO5,0.0
mp-560561,Cu2SeO4,0.0
mp-1080131,Cu2SiHgTe4,0.0
mp-1078922,Cu2SiNiS4,0.0
mp-1225810,Cu2SiTe3,0.0
mp-1225845,Cu2Sn2Pd,0.0
mp-16566,Cu2SnHgSe4,0.0
mp-1079012,Cu2SnHgTe4,0.0
mvc-13133,Cu2SnSe4,0.0
mp-13089,Cu2SnTe3,0.0
mp-542807,Cu2Te2Br2O5,0.0
mp-554614,Cu3(AsO4)2,0.0
mp-675786,Cu3(BiI4)4,0.0
mp-1103484,Cu3(BrN)4,0.0
mp-1192764,Cu3(CO4)2,0.0
mvc-14096,Cu3(GeO3)4,0.0
mp-1193512,Cu3(I3O10)2,0.02590000000000004
mp-1181714,Cu3(IN)4,0.0
mp-675781,Cu3(Mo3S4)4,0.0
mp-1043320,Cu3(NiO3)4,0.0
mp-760179,Cu3(OF)2,0.0
mp-673105,Cu3(P2O7)2,0.0
mp-4093,Cu3(PO4)2,0.0
mp-1042691,Cu3(SbO3)4,0.0
mvc-13015,Cu3(SnO3)4,0.0
mp-1043077,Cu3(WO3)4,0.0
mp-1225808,Cu31PdN8,0.0
mp-685126,Cu39S20,0.0
mp-1184011,Cu3Ag,0.0
mp-1966,Cu3As,0.0
mp-721072,Cu3As2H2PbO10,0.0
mp-1181754,Cu3As4,0.0
mp-1147541,Cu3As4(OF)6,0.0
mp-504884,Cu3AsS3,0.0
mp-2258,Cu3Au,0.0
mp-560136,Cu3B4Pb2O11,0.0
mp-1105186,Cu3B5Pt9,0.0
mp-1203923,Cu3B6H2O13,0.2127000000000004
mp-554590,Cu3B7BrO13,0.0
mp-651682,Cu3B7IO13,0.0
mp-1213419,Cu3BO5,0.0
mp-1226093,Cu3Bi2S3Br2,0.0
mp-628637,Cu3BiSe2BrO8,0.0
mp-505104,Cu3BiSe2ClO8,0.0
mp-1183996,Cu3F,0.0
mp-19724,Cu3Ge,0.0
mp-1204488,Cu3H10(C4O7)2,0.0
mp-697994,Cu3H4SO8,0.0
mp-1181685,Cu3H4SeO8,0.0
mp-1199983,Cu3Mo(HO2)4,0.0
mp-1213388,Cu3MoSO9,0.0
mp-1101883,Cu3N4Cl4O,0.0
mp-1147701,Cu3NF3,0.0
mp-1225698,Cu3Ni,0.0
mp-1226082,Cu3Ni(CO5)2,0.0
mp-566425,Cu3NiH6(ClO3)2,0.0
mp-1181468,Cu3NiHgSe4,0.0
mp-1204774,Cu3NiP2O9,0.0
mp-1022728,Cu3O2,0.0
mp-1178476,Cu3O4,0.0
mp-997504,Cu3OF5,0.0
mp-1204687,Cu3P2H2O9,0.0
mp-1203515,Cu3PO7,0.0
mp-5756,Cu3PSe4,0.002600000000000157
mp-1225772,Cu3Pd13S7,0.0
mp-1225751,Cu3Pd2,0.0
mp-1225771,Cu3PdAu4,0.0
mp-1206517,Cu3PdN,0.0
mp-12086,Cu3Pt,0.0
mp-1184028,Cu3Rh,0.0
mp-1207194,Cu3RhN,0.0
mp-1184026,Cu3Ru,0.0
mp-1207091,Cu3RuN,0.0
mp-20900,Cu3Sb,0.0
mp-1232328,Cu3Sb4(OF)6,0.0
mp-557136,Cu3Se2(ClO3)2,0.0
mp-867317,Cu3Si,0.0
mp-581786,Cu3Sn,0.0
mp-1178492,Cu3Sn(PO4)4,0.0
mp-1181705,Cu3SnAu,0.0
mp-1183984,Cu3Te,0.0
mp-1225676,Cu3Te2,0.0
mp-572313,Cu3Te2(BrO3)2,0.0
mp-21861,Cu3TeO6,0.0
mp-1194267,Cu3TePbO8,0.0
mp-1183970,Cu3W,0.0
mp-27124,Cu4(BiS2)5,0.0
mp-26742,Cu4(PO4)3,0.0
mp-1213530,Cu41Sn11,0.0
mp-14455,Cu4Ag(AsO4)3,0.0
mp-1202558,Cu4As3PbO12,0.0
mp-1213317,Cu4AsClO6,0.0
mp-1225761,Cu4Au,0.0
mp-1225836,Cu4Bi3Pb(SeO)4,0.0
mp-672295,Cu4Bi5PbS11,0.0
mp-541149,Cu4Bi7S12,0.0
mp-707201,Cu4H10SO12,0.0
mp-1225703,Cu4I3Cl,0.0
mp-1478,Cu4O3,0.0
mp-753717,Cu4OF6,0.0
mp-753552,Cu4PtO5,0.0
mp-1080109,Cu4S3N,0.0
mp-1197335,Cu4SO10,0.0
mp-1225830,Cu4Si(GeO4)3,0.0
mp-557274,Cu4Si2NiS7,0.0
mp-1201527,Cu4Si4Pb4C4ClO28,0.0
mp-685340,Cu4Sn15S32,0.0
mp-1181548,Cu4W(SCl)4,0.0
mp-27589,Cu5(PO5)2,0.0
mp-1200185,Cu5(Si2O7)2,0.0
mp-504746,Cu5As2,0.0
mp-559620,Cu5Bi2(B2O7)2,0.03869999999999997
mp-1225722,Cu5Ge2,0.0
mp-1226698,Cu5H8(ClO5)2,0.0
mp-1045868,Cu5O7,0.0
mp-26796,Cu5P3O13,0.0
mp-554163,Cu5Se2(ClO4)2,0.0
mp-510418,Cu5Si2S7,0.0
mp-709325,Cu5Si4(HO7)2,0.0
mp-1103757,Cu5Sn2Se7,0.0
mp-1103821,Cu5Sn2Te7,0.0
mp-568524,Cu5Sn4,0.0
mp-1213626,Cu64O,0.0
mp-651706,Cu6AgBi12PbS22,0.0
mp-1225700,Cu6AuN2,0.0
mp-1213474,Cu6Bi(AsO7)3,0.0
mp-675590,Cu6BiS6,0.0
mp-1199896,Cu6BiSe6,0.0
mp-1147668,Cu6NiO6,0.0
mp-760939,Cu6OF11,0.0
mp-1227547,Cu6Pb2Se6N2O27,0.0
mp-643203,Cu6PbSe2Cl5O8,0.0
mp-1225725,Cu6PdN2,0.0
mp-1225809,Cu6SbAs,0.0
mp-1233,Cu6Sn5,0.0
mp-1225733,Cu6SnGe,0.0
mp-1147658,Cu6SnO8,0.0
mp-540665,Cu7As6Se13,0.0
mp-29823,Cu7PSe6,0.05960000000000053
mp-624299,Cu7S4,0.0
mp-1226184,Cu7S4N,0.0
mp-1206157,Cu7Si2,0.0
mp-1226201,Cu7Te2(SO10)2,0.0
mp-624307,Cu7Te4,0.0
mp-1227576,Cu81Sn22,0.0
mp-608239,Cu8Ge5C4(S2N)8,0.0
mp-676599,Cu8NO11,0.0
mp-1213576,Cu8NiSb3S13N6,0.0
mp-760084,Cu8O7,0.0
mp-26304,Cu9(PO4)8,0.0
mp-740764,Cu9P4(HO10)2,0.0
mp-685056,Cu9S16,0.0
mp-1225890,Cu9Sb(AsS6)2,0.0
mp-558647,Cu9Se4(Cl3O7)2,0.0
mp-673655,Cu9Se5,0.0
mp-673255,Cu9Se8,0.0
mp-1226080,CuAg10(PbO4)3,0.0
mp-984351,CuAg3,0.0
mp-555515,CuAg4TeO6,0.0
mp-556402,CuAg5As3O11,0.0
mp-1188802,CuAgF3,0.0
mp-996975,CuAgO2,0.0
mp-608358,CuAgPO4,0.0
mp-1095713,CuAgPd2,0.0
mp-1225652,CuAgTe,0.0
mp-2977,CuAgTe2,0.0
mp-12070,CuAs,0.0
mp-21859,CuAs2,0.0
mp-1178368,CuAsO3,0.0
mp-557871,CuAsPbO4,1.7890000000000001
mp-5305,CuAsS,0.0
mp-1102382,CuAsSe,0.0
mp-522,CuAu,0.0
mp-2103,CuAu3,0.0
mp-1225742,CuAu4,0.0
mp-1232366,CuAuClO2,0.0
mp-28376,CuAuF5,0.0
mp-996978,CuAuO2,0.0
mp-30151,CuAuSe4,0.0
mp-1181765,CuB5,0.0
mp-28896,CuBIr,0.0
mp-1184042,CuBO3,0.0
mp-569792,CuBi,0.0
mp-755760,CuBi(PO4)2,0.0
mp-1213034,CuBi2Se2O,0.0
mp-1213110,CuBi2Te2O,0.0
mp-1184051,CuBiO3,0.0
mp-1225678,CuBiSe2,0.0
mp-545369,CuBiTeO,0.0
mp-23219,CuBr2,0.0
mp-996993,CuBrO2,0.0
mp-1105650,CuC2(NCl2)2,0.19179999999999967
mp-1181573,CuC2(NO3)2,0.0
mp-1197218,CuC2(SN2)2,0.0
mp-556238,CuC3(OF)3,2.789
mp-1192074,CuC3N2O5,0.0
mp-1182624,CuC4(NO5)2,0.0
mp-1192156,CuC4S4(NO6)2,0.0
mp-1213666,CuC5O8,0.0
mp-1189777,CuC8S4N4Cl,0.0
mp-1178374,CuCO3,0.0
mp-1191430,CuCl3O2,0.0
mp-32829,CuCl4,0.0
mp-1229,CuF2,0.0
mp-1225680,CuGe2P3,0.0
mp-1025440,CuGe3,0.0
mp-1225673,CuGePSe,0.0
mp-867917,CuGeRh2,0.0
mp-558144,CuH10(CO4)2,0.0
mp-698276,CuH11C4(NO5)2,0.0
mp-740737,CuH12(BrO6)2,0.0
mp-721035,CuH12(NO)6,0.0
mp-559038,CuH12C4(NO)6,0.0
mp-1181838,CuH14C4(NO2)4,0.0
mp-705846,CuH16(ClO8)2,0.0
mp-1212998,CuH2(Br2N)2,0.0
mp-1213238,CuH2(NCl2)2,0.0
mp-1213087,CuH2(NF2)2,0.0
mp-24164,CuH2(SeO3)2,0.0
mp-698396,CuH4C2NCl3O,0.11909999999999996
mp-720263,CuH4SeO5,0.0
mp-600167,CuH6(CO2)4,0.0
mp-556725,CuH8C2Br3NO,0.0
mp-560533,CuH8C4(NO3)2,0.0
mp-696290,CuH8C4N8(ClO)2,0.0
mp-654900,CuH9C4NO6,0.0
mp-643743,CuHClO,0.0
mp-24242,CuHOF,0.0
mp-996973,CuHgO2,0.0
mp-1184044,CuHgO3,0.0
mp-1147667,CuI2,0.0
mp-33218,CuI4,0.0
mp-631427,CuIrBr,0.0
mp-1078111,CuMoS4N,0.0
mp-1080203,CuN,0.0
mp-1181556,CuN2(Cl2O)2,0.0
mp-608366,CuN6,0.0
mp-1199648,CuN6(ClO4)3,0.0
mp-1080799,CuNF3,0.0
mp-1225687,CuNi,0.0
mp-30069,CuNi2Sb,0.0
mp-30592,CuNi2Sn,0.0
mp-1184054,CuNi3,0.0
mp-1225814,CuNi3(SnS4)2,0.0
mp-1017556,CuNi3N,0.0
mp-761415,CuNi3O4,0.0
mp-1225702,CuNi3S8,0.0
mp-772465,CuNi4O5,0.0
mp-767305,CuNi9O10,0.0
mp-1096571,CuNiAu2,0.0
mp-1225685,CuNiPd,0.0
mp-11834,CuNiSb2,0.0
mp-1692,CuO,0.0
mp-25378,CuO2,0.0
mp-505785,CuP(HO)5,0.0
mp-720380,CuP2(HO3)2,0.0
mp-1203798,CuP2H18C6Cl,3.0060000000000002
mp-695966,CuP3H12NO13,0.0
mp-1213434,CuP4(RuO7)2,0.0
mp-1197804,CuP4S3Br,1.7309999999999999
mp-753519,CuPO4,0.0
mp-25380,CuPO4F,0.0
mp-1147595,CuPb2(ClO)2,0.0
mp-1079292,CuPb2(ClO2)2,0.0
mp-1147757,CuPb2(OF)2,0.0
mp-1147601,CuPb2(SCl)2,0.0
mp-1195366,CuPb2Cl3O2,0.0
mp-1195238,CuPb2I3O2,0.0
mp-1184128,CuPb3,0.0
mp-1190173,CuPb3(ClO2)2,0.0
mp-1198565,CuPb5Se4(ClO3)4,0.0
mp-1097010,CuPbO2,0.0
mp-1184117,CuPbO3,0.0
mp-1181649,CuPbSO6,0.0
mp-1096453,CuPd2Au,0.0
mp-1184119,CuPd3,0.0
mp-1096049,CuPdAu2,0.0
mp-997012,CuPdO2,0.0
mp-1184073,CuPdO3,0.0
mp-644311,CuPt,0.0
mp-1213433,CuPt3,0.0
mp-12608,CuPt7,0.0
mp-631418,CuRe2Cl,0.0
mp-1225704,CuRh,0.0
mp-1184121,CuRu3,0.0
mp-555599,CuS,0.0
mp-849086,CuS2,0.0
mp-1213485,CuS2(NO4)2,0.0
mp-1147671,CuSCl,0.0
mp-20525,CuSO4,0.0
mp-755148,CuSb(PO4)2,0.0
mp-560231,CuSb2(XeF4)6,0.0
mp-867753,CuSbRh2,0.0
mp-571486,CuSe,0.0
mp-2000,CuSe2,0.0
mp-554040,CuSeO4,0.0
mp-1225747,CuSeS,0.0
mp-674984,CuSi2P3,0.0
mp-1225800,CuSi4P3,0.0
mp-631422,CuSiBr,0.0
mp-721943,CuSiH12(OF)6,0.0
mp-1093651,CuSiIr2,0.0
mp-1204686,CuSiO4,0.0
mp-978532,CuSiRh2,0.0
mp-1097425,CuSiTc2,0.0
mp-10598,CuSn,0.0
mp-1184173,CuSn3,0.0
mp-1071623,CuSnAu,0.0
mp-1181801,CuSnO6,0.0
mp-1184057,CuSnPd2,0.0
mp-30595,CuSnRh2,0.0
mp-631463,CuTcBi,0.0
mp-20826,CuTe,0.0
mp-756522,CuTe(PO4)2,0.0
mp-1103235,CuTe2,0.0
mp-27548,CuTe2O5,0.0
mp-1041481,CuTe2O7,0.0
mp-1184180,CuTeAs,0.0
mp-22420,CuTeO4,0.0
mp-1225744,CuTeSe,0.0
mp-985207,Dy(Al2Cr)4,0.0
mp-984726,Dy(Al2Cu)4,0.0
mp-5091,Dy(Al2Fe)4,0.0
mp-1213056,Dy(Al5Fe)2,0.0
mp-1213146,Dy(Al5Re)2,0.0
mp-1104803,Dy(AlC)3,0.0
mp-7121,Dy(AlSi)2,0.0
mp-2958,Dy(BC)2,0.0
mp-1095029,Dy(BIr)2,0.0
mp-1105740,Dy(BRh)4,0.0
mp-1202990,Dy(BRu)4,0.0
mp-849319,Dy(Bi3O5)4,0.0
mp-1106057,Dy(Co2B)6,0.0
mp-5135,Dy(CoB)2,0.0
mp-19771,Dy(CoGe)2,0.0
mp-5976,Dy(CoSi)2,0.0
mp-12080,Dy(CrGe)2,0.0
mp-530588,Dy(CrS2)3,0.0
mp-19909,Dy(CrSi)2,0.0
mp-22066,Dy(CuGe)2,0.0
mp-9420,Dy(CuO2)2,0.0
mp-1018631,Dy(CuS)2,0.0
mp-2917,Dy(CuSi)2,0.0
mp-20247,Dy(Fe2Ge)2,0.0
mp-1104283,Dy(Fe2Si)2,0.0
mp-1225375,Dy(Fe5Si)2,0.0
mp-568725,Dy(FeB)2,0.0
mp-21426,Dy(FeGe)2,0.0
mp-1178371,Dy(FeO2)2,0.0
mp-4939,Dy(FeSi)2,0.0
mp-672392,Dy(FeSn)6,0.0
mp-1213263,Dy(GaCo)6,0.0
mp-22180,Dy(GePd)2,0.0
mp-1079316,Dy(GePt)2,0.0
mp-4337,Dy(GeRh)2,0.0
mp-21082,Dy(GeRu)2,0.0
mp-1225823,Dy(InCu)6,0.0
mp-1205433,Dy(InPt)4,0.0
mp-1184194,Dy(Mg4Al3)4,0.0
mp-1225398,Dy(MnAl)6,0.0
mp-21000,Dy(MnGe)2,0.0
mp-20668,Dy(MnGe)6,0.0
mp-4985,Dy(MnSi)2,0.0
mp-1105051,Dy(MnSn)6,0.0
mp-1103518,Dy(Mo3S4)2,0.0
mp-1104138,Dy(Mo3Se4)2,0.0
mp-11340,Dy(Ni2As)2,0.0
mp-1202380,Dy(Ni2B)6,0.0
mp-866032,Dy(Ni2P)2,0.0
mp-1079900,Dy(NiB)2,0.0
mp-1080746,Dy(NiBi)2,0.0
mp-21415,Dy(NiGe)2,0.0
mp-5227,Dy(NiP)2,0.0
mp-1080718,Dy(NiSb)2,0.0
mp-1237528,Dy(PO)2,0.0
mp-1207097,Dy(PPd)2,0.0
mp-568782,Dy(PPt4)2,0.0
mp-569089,Dy(PRu)2,0.0
mp-1206850,Dy(SiAg)2,0.0
mp-2954,Dy(SiAu)2,0.0
mp-4065,Dy(SiIr)2,0.0
mp-4692,Dy(SiNi)2,0.0
mp-542389,Dy(SiNi5)2,0.0
mp-12088,Dy(SiOs)2,0.0
mp-3301,Dy(SiPd)2,0.0
mp-1080061,Dy(SiPt)2,0.0
mp-2893,Dy(SiRh)2,0.0
mp-4177,Dy(SiRu)2,0.0
mp-1025364,Dy(TiGa2)2,0.0
mp-1213639,Dy(TlTe2)3,0.0
mp-581987,Dy(Zn10Rh)2,0.0
mp-580113,Dy(Zn10Ru)2,0.0
mp-1226088,Dy10Al4Ge11,0.0
mp-569825,Dy10Si17,0.0
mp-1205037,Dy11(In3Si2)2,0.0
mp-1213205,Dy11(Mn2C3)6,0.0
mp-1202044,Dy11(Ni10C)6,0.0
mp-1213526,Dy11Ge10,0.0
mp-1213601,Dy11Ge18,0.0
mp-531574,Dy11S16,0.0
mp-30624,Dy11Sn10,0.0
mp-543017,Dy12(MnC3)5,0.0
mp-1196965,Dy12(ReC3)5,0.0
mp-1213130,Dy12Al7Si,0.0
mp-1213103,Dy12Co5Bi,0.0
mp-1213460,Dy12Ni6Pb,0.0
mp-1225465,Dy13Mg7Co4,0.0
mp-1225847,Dy14Ag51,0.0
mp-1225861,Dy14Au51,0.0
mp-1213073,Dy2(Al3Ir)3,0.0
mp-1213071,Dy2(Al3Pd)3,0.0
mp-1213083,Dy2(Al3Rh)3,0.0
mp-1225361,Dy2(B2Rh3)3,0.0
mp-753975,Dy2(BiO2)7,0.0
mp-1193482,Dy2(Ga3Co)3,0.0
mp-1213136,Dy2(Ga3Ir)3,0.0
mp-1213121,Dy2(Ga3Rh)3,0.0
mp-22627,Dy2(Ga3Ru)3,0.0
mp-1226188,Dy2(GaNi)5,0.0
mp-641314,Dy2(GePt3)3,0.0
mp-1225415,Dy2(InSn)3,0.0
mp-1198877,Dy2(Ni5B3)3,0.0
mp-1226356,Dy20In40Rh19,0.0
mp-1184089,Dy2AgAu,0.0
mp-864981,Dy2AgIr,0.0
mp-864977,Dy2AgOs,0.0
mp-865161,Dy2AgRu,0.0
mp-1102728,Dy2Al,0.0
mp-1198587,Dy2Al17,0.0
mp-1196052,Dy2Al2Fe15,0.0
mp-1225300,Dy2Al3Co,0.0
mp-1225288,Dy2Al3Cu,0.0
mp-1225310,Dy2Al3Fe,0.0
mp-1106052,Dy2Al3Fe14,0.0
mp-1189494,Dy2Al3Ge4,0.0
mp-3513,Dy2Al3Si2,0.0
mp-1225421,Dy2Al5Fe12,0.0
mp-11631,Dy2Al6Si4Au,0.0
mp-11630,Dy2Al6Si4Pt,0.0
mp-1225315,Dy2AlCo3,0.0
mp-21382,Dy2AlGe2,0.0
mp-1213267,Dy2AlGe3,0.0
mp-1070646,Dy2AlNi2,0.0
mp-865159,Dy2AlZn,0.0
mp-1225463,Dy2As7Rh12,0.0
mp-1103411,Dy2Au,0.0
mp-568541,Dy2B4C,0.0
mp-1198294,Dy2B6Os,0.0
mp-1198707,Dy2B6Ru,0.0
mp-769189,Dy2Bi2O7,0.0
mp-1069561,Dy2BiO2,0.0
mp-2238,Dy2C3,0.0
mp-1206555,Dy2CdCu2,0.0
mp-1079838,Dy2CdGe2,0.0
mp-864973,Dy2CdIn,0.0
mp-1191588,Dy2Co12P7,0.0
mp-569638,Dy2Co17,0.0
mp-1206614,Dy2Co2I,0.0
mp-865105,Dy2Co3Ge5,0.0
mp-15898,Dy2Co3Si5,0.0
mp-569158,Dy2Co7B3,0.0
mp-31093,Dy2CoSi2,0.0
mp-1025323,Dy2Cr2C3,0.0
mp-1225292,Dy2CuAg3,0.0
mp-1095027,Dy2CuGe6,0.0
mp-864963,Dy2CuIr,0.0
mp-752673,Dy2CuO4,0.0
mp-1184094,Dy2CuPt,0.0
mp-864960,Dy2CuRh,0.0
mp-865220,Dy2CuRu,0.0
mp-559681,Dy2CuTe5Br2O13,0.0
mp-1190791,Dy2Fe12P7,0.0
mp-4023,Dy2Fe14B,0.0
mp-571165,Dy2Fe14C,0.0
mp-1225909,Dy2Fe15Co2C,0.0
mp-1225868,Dy2Fe15Co2CN,0.0
mp-1225614,Dy2Fe15Si2C,0.0
mp-1225737,Dy2Fe15Si2CN,0.0
mp-1196404,Dy2Fe17,0.0
mp-1225413,Dy2Fe17C,0.0
mp-1225407,Dy2Fe17C2,0.0
mp-1190738,Dy2Fe17C3,0.0
mp-1225785,Dy2Fe17CN,0.0
mp-1213248,Dy2Fe17H3,0.0
mp-1190690,Dy2Fe17N3,0.0
mp-11705,Dy2Fe2Si2C,0.0
mp-1225304,Dy2Fe3Ni,0.0
mp-669393,Dy2Fe3Si5,0.0
mp-1225389,Dy2Fe4Si9,0.0
mp-1198179,Dy2Fe6Co8B,0.0
mp-1225366,Dy2FeCo3,0.0
mp-1206589,Dy2FeSi2,0.0
mp-1225932,Dy2Ga3(Fe7C)2,0.0
mp-1225455,Dy2Ga3Co,0.0
mp-1225325,Dy2Ga3Cu,0.0
mp-1203342,Dy2Ga3Fe14,0.0
mp-1225386,Dy2Ga3Ni,0.0
mp-1189362,Dy2Ga5Cu12,0.0
mp-1102381,Dy2Ga8Co,0.0
mp-1102259,Dy2Ga8Fe,0.0
mp-1184152,Dy2GaAg,0.0
mp-1225427,Dy2GaCu3,0.0
mp-1184160,Dy2Ge2O5,0.0
mp-1205905,Dy2Ge2Ru,0.0
mp-1225438,Dy2Ge3,0.0
mp-1190128,Dy2Ge5Ir3,0.0
mp-866028,Dy2Ge5Rh3,0.0
mp-1105812,Dy2Ge5Ru3,0.0
mp-1202284,Dy2Ge6Pd,0.0
mp-21351,Dy2In,0.0
mp-510050,Dy2In16Pt7,0.0
mp-1225405,Dy2In3Cu,0.0
mp-1184170,Dy2InAg,0.0
mp-21866,Dy2InAu2,0.0
mp-569877,Dy2InGe2,0.0
mp-984660,Dy2InHg,0.0
mp-1068319,Dy2InNi2,0.0
mp-20870,Dy2InPd2,0.0
mp-984104,Dy2IrAu,0.0
mp-865221,Dy2IrPd,0.0
mp-864999,Dy2IrRh,0.0
mp-865219,Dy2IrRu,0.0
mp-864888,Dy2Mg,0.0
mp-865006,Dy2MgAl,0.0
mp-1184111,Dy2MgCd,0.0
mp-1205987,Dy2MgCu2,0.0
mp-1184078,Dy2MgGa,0.0
mp-977559,Dy2MgGe2,0.0
mp-1206447,Dy2MgNi2,0.0
mp-570561,Dy2MgSi2,0.0
mp-1237201,Dy2Mn12Ga5,0.0
mp-1190617,Dy2Mn12P7,0.0
mp-1191383,Dy2Mn3Cu9P7,0.0
mp-505334,Dy2Mn3Si5,0.0
mp-1025363,Dy2Mo2C3,0.0
mp-1190424,Dy2Mo2O7,0.0
mp-1205065,Dy2N3,0.0
mp-1197659,Dy2Nb2Fe15,0.0
mp-754120,Dy2Nb2O7,0.0
mp-1204364,Dy2Nb3Ge4,0.0
mp-1191758,Dy2Ni12As7,0.0
mp-1197654,Dy2Ni17,0.0
mp-1197710,Dy2Ni22C3,0.0
mp-1079840,Dy2Ni2Sn,0.0
mp-1197874,Dy2Ni7,0.0
mp-568709,Dy2Ni7Sn3,0.0
mp-1078556,Dy2NiAs2,0.0
mp-864886,Dy2NiIr,0.0
mp-864917,Dy2NiRu,0.0
mp-1213197,Dy2NiRuO6,0.0
mp-1225313,Dy2NiSb4,0.0
mp-1079605,Dy2NiSn6,0.0
mp-1213167,Dy2OsC2,0.0
mp-984534,Dy2OsPd,0.0
mp-771147,Dy2P4O13,5.6388000000000025
mp-1225373,Dy2P7Rh12,0.0
mp-31088,Dy2Pd2Pb,0.0
mp-1225328,Dy2PdPt,0.0
mp-1184072,Dy2PdRh,0.0
mp-865216,Dy2PdRu,0.0
mp-1103421,Dy2Pt,0.0
mp-1025240,Dy2Re2Si2C,0.0
mp-1196838,Dy2Re3Si5,0.0
mp-1204645,Dy2ReB6,0.0
mp-1188135,Dy2ReC2,0.0
mp-14968,Dy2Ru2O7,0.0
mp-865222,Dy2RuRh,0.0
mp-13451,Dy2Sb5,0.0
mp-1178366,Dy2SbO2,0.0
mp-1213190,Dy2Sc3Si4,0.0
mp-1225291,Dy2Si3,0.0
mp-1225306,Dy2Si3Ni,0.0