task_id,pretty_formula,band_gap
mp-865196,Li3V3P8O29,0.7106999999999999
mp-866787,CaSnS3,1.2199
mp-989178,ScOF,4.3361
mp-997544,Li2V2(PO4)3,0.8847999999999998
mp-997545,Li3Mn3(PO4)4,0.8352000000000002
mp-998365,NiAgF3,1.9403
mvc-15999,Ca2Mo3O8,0.16910000000000025
mp-1008556,AlGaN2,2.6693
mp-1009818,CN2,0.13470000000000049
mp-1013561,Sr3SbAs,0.12939999999999996
mp-10161,KZnSb,0.3487999999999998
mp-1018059,GaSb,0.058700000000000425
mp-1023926,Te2W,1.0799
mp-1023934,MoSe2,1.4317
mp-1023935,Te2Mo,1.0703
mp-1023937,WS2,1.8095
mp-1045062,Zn2MoWO6,1.6433
mp-1078597,ZnCd3Se4,0.6262
mp-1091384,NbTl3S4,2.4607
mp-1095155,Sr2NiIrO6,0.06630000000000003
mp-1096824,AlAgO2,1.0782999999999996
mp-1100332,Ca2SnS4,0.3980000000000001
mp-1100415,ZrSbRh,1.1674999999999995
mp-1100435,ZrCuB,0.2919999999999998
mp-1111493,K3ErCl6,4.5753
mp-1118832,Ca2WN2,0.27010000000000023
mp-1120745,NaTiF4,0.020000000000000014
mp-1174918,Li7Mn2(CoO4)3,0.6325999999999996
mp-1186908,RhBr,0.1061999999999994
mp-11925,RbTa(CuSe2)2,1.7333
mp-1199561,FeSiO3,2.7863
mp-14708,Tm2Ge2O7,3.7188
mp-15634,Cs2NaTiF6,0.04610000000000003
mp-15702,MgCN2,3.8457
mp-16363,CoAsS,0.8512000000000004
mp-1639,BN,4.4506
mp-18941,Co2SiO4,1.3970000000000002
mp-19391,NaVO2,1.7715000000000003
mp-1986,ZnO,0.6310999999999999
mp-21309,MgTe(PbO3)2,2.2616
mp-21315,PuNi5,0.024499999999999744
mp-22877,VCl2,1.2546000000000004
mp-22909,ZnCl2,4.0533
mp-23559,In(IO3)3,3.0681
mp-24180,RbH6C2S2NO4,5.1913
mp-2447,P4Se5,1.8241
mp-25135,RbV3(SeO6)2,2.3219000000000003
mp-25154,V(PO3)3,2.2644
mp-2612,GeTe,0.3630999999999993
mp-27063,Li2CuPO4,1.4033999999999995
mp-27917,Ca3SiO5,3.696
mp-29873,Rb2CdCl4,3.1706
mp-30847,TiSnPt,0.7908
mp-334,LaF3,6.0452
mp-34508,Sr(SmS2)2,2.1281
mp-35031,Pr5CuSe8,0.9451999999999998
mp-35264,Pr5AgSe8,1.4536999999999995
mp-3551,TbAgTe2,0.9058000000000002
mp-36066,PNO,5.0722000000000005
mp-36903,KNO3,2.9543
mp-37267,NaYF4,7.3759
mp-37657,Ca3SiO5,2.9146
mp-510657,VCu3O4,0.1009000000000002
mp-540193,LiMnP2O7,1.6166
mp-540472,Mn(PO3)3,1.416
mp-543100,LiCoSiO4,1.3978
mp-545756,ZnSO4,4.2625
mp-550070,NbBr2O,0.9038000000000002
mp-550469,TiZn(BiO3)2,0.8966999999999992
mp-552966,Rb4CO4,0.8876
mp-554781,Tb3CuSnS7,1.5553
mp-555976,Na2TiSiO5,3.2081
mp-556319,SiO2,5.1979999999999995
mp-556544,LiAlSiO4,5.021
mp-557754,ZrP2O7,4.0937
mp-558366,SiO2,1.179
mp-561475,V2MoO8,1.5051
mp-563,C3N4,0.873800000000001
mp-570971,Sr3Ga3N5,1.3625000000000005
mp-571265,Rb2UBr6,0.2249000000000001
mp-6065,Sr2GaSbO6,0.7291000000000003
mp-624249,Zn(C2N3)2,4.7631
mp-644223,LiBH4,6.685499999999998
mp-673126,LiSb(PO3)4,4.3199999999999985
mp-675109,Y5O4F7,4.4956000000000005
mp-7000,SiO2,5.718999999999999
mp-717,B2O3,8.3486
mp-753719,SrLiNb2O6F,1.7698999999999998
mp-754246,TiSnO3,1.1151
mp-754308,Li3Cu3(PO4)2,0.7068000000000003
mp-757203,NaPH4SO8,5.664300000000001
mp-758604,LiAgF2,1.3844
mp-7601,NbGaO4,3.4003
mp-760402,TaRhO4,0.9714
mp-760684,LiTeHO4,1.4912
mp-761341,TiVO4,1.1814
mp-761979,LiCoPO4,2.3118
mp-763088,Li2MnF4,3.9851
mp-763098,Li2MnF4,4.0065
mp-764673,Na3VO4,3.8995
mp-765289,LiSnPO4,3.2874
mp-765437,NbCrO4,1.9782
mp-765502,Li4Cr3FeO8,2.1058000000000003
mp-765859,LiMnPO4,3.3411
mp-765893,Li3NiOF3,3.1376
mp-768127,NaSnPCO7,2.5546
mp-768440,Li3VS4,1.3336
mp-770173,Mg2Mn3O8,0.7802000000000002
mp-770596,TaCrO4,0.9754
mp-771533,CoPO4,0.8261
mp-773667,Ge2N2O,2.3691000000000004
mp-774156,NbFeO4,1.0865
mp-774712,LiCuS,0.8512000000000004
mp-775319,Li2Mn3NiO8,0.7708999999999997
mp-777090,LiV2P4(HO8)2,0.9558000000000002
mp-7914,NaScO2,3.98
mp-7931,SrP,0.4594
mp-8311,Si3NiP4,0.3308
mp-866522,Ca2SnS4,1.0520999999999998
mp-866922,Ca2SnS4,2.2265
mp-8717,Rb2MnSe2,1.1227999999999998
mp-8973,NaSi2N3,4.1843
mp-9517,SrTiN2,0.7925999999999997
mp-972825,SiH8,6.98
mvc-11730,YVO3,0.17930000000000046
mvc-12320,Y2Ti3O9,2.4471
mvc-4588,Zn3Cr2(GeO4)3,2.6701000000000006
mvc-5676,TeWO6,1.4416000000000002
mp-1003313,Li2Mn3O6,0.016499999999999737
mp-1013524,Ca3N2,0.011600000000000056
mp-1016120,KMnO2,1.7737999999999998
mp-1016152,NaMnO2,1.6496
mp-1018664,CeO2,1.9544
mp-1018719,HfTaNO3,1.8978
mp-1018721,HfO2,4.6682000000000015
mp-1018722,HgSe,1.0322
mp-1018752,LaTeCl,0.6562999999999999
mp-1019551,BaNa2Mg(PO4)2,4.869199999999998
mp-1019561,Ca2GeO4,3.555
mp-1019562,Ca2SiO4,4.1723
mp-1019563,Ca2SiO4,3.3021
mp-1023925,WS2,1.6944
mp-1023927,Te2MoWSe2,0.7319999999999998
mp-1023928,MoWSe4,1.2658
mp-1023929,WSeS,0.8047000000000001
mp-1023930,MoW(SeS)2,0.4755000000000002
mp-1023933,WSe2,1.5241
mp-1023938,Te2Mo,1.0502
mp-1023939,MoS2,1.5510000000000002
mp-1023940,MoSe2,1.4247999999999998
mp-1023942,Te2W,1.0435
mp-1023943,TeWSe,0.5229999999999999
mp-1023945,Te2MoWSe2,0.30499999999999994
mp-1023948,TeMoSe,0.4673000000000001
mp-1023953,MoSeS,0.6783
mp-1025571,WS2,1.7071
mp-1025572,WSe2,1.2289
mp-1025573,Te2W,0.6644000000000001
mp-1025574,Te2Mo(WSe2)2,0.17189999999999994
mp-1025575,Mo(WSe3)2,1.0142999999999998
mp-1025576,Te2Mo,0.6230000000000002
mp-1025577,W3(SeS2)2,0.7054
mp-1025584,W3(SeS2)2,0.7679
mp-1025585,Te4Mo(WSe)2,0.0524
mp-1025588,W3(Se2S)2,0.8828999999999998
mp-1025589,MoW2(Se2S)2,0.6747000000000001
mp-1025598,Te4Mo(WSe)2,0.3238000000000003
mp-1025599,W3(Se2S)2,0.9082
mp-1025626,Te4Mo2WSe2,0.057500000000000114
mp-1025629,Te6Mo2W,0.5741
mp-1025649,Te6Mo2W,0.6132
mp-1025652,Te2MoW2(SeS)2,0.30230000000000024
mp-1025656,MoW2(Se2S)2,0.8603000000000001
mp-1025663,MoW2(SeS2)2,0.7688000000000001
mp-1025664,Te4Mo2WSe2,0.3518999999999997
mp-1025675,Te4Mo2WSe2,0.3986000000000001
mp-1025678,Te6MoW2,0.6236000000000002
mp-1025682,Te4Mo(WSe)2,0.3641000000000001
mp-1025685,Te4Mo3Se2,0.18710000000000004
mp-1025702,Te2Mo(WSe2)2,0.12340000000000018
mp-1025705,Te2Mo(WSe2)2,0.04820000000000002
mp-1025716,MoW2(SeS2)2,0.5537000000000001
mp-1025729,Te4Mo(WSe)2,0.017100000000000115
mp-1025732,Te4Mo(WSe)2,0.3418999999999999
mp-1025733,Te4Mo3Se2,0.4340999999999999
mp-1025743,Te4Mo2WS2,0.008099999999999774
mp-1025752,Te4Mo2WSe2,0.04620000000000024
mp-1025754,Te2Mo2WSe4,0.01670000000000016
mp-1025774,Te2Mo2WSe4,0.018299999999999983
mp-1025779,Te2Mo2WSe4,0.005700000000000038
mp-1025781,Te4Mo2WSe2,0.05810000000000004
mp-1025799,MoSe2,1.1603
mp-1025815,Mo2WSe6,1.0366999999999995
mp-1025816,MoW2(Se2S)2,0.9087999999999998
mp-1025834,Te2Mo(WSe2)2,0.0202
mp-1025836,Te2MoW2(SeS)2,0.4127000000000001
mp-1025838,Te2Mo2WS4,0.07819999999999983
mp-1025841,Mo2W(Se2S)2,0.6720000000000002
mp-1025866,Mo2W(Se2S)2,0.7303000000000002
mp-1025870,MoW2(Se2S)2,0.7048000000000001
mp-1025874,MoS2,1.4985
mp-1025879,Mo2W(Se2S)2,0.8946000000000001
mp-1025881,Te2Mo2W(SeS)2,0.0253000000000001
mp-1025888,Te2MoW2(SeS)2,0.2852000000000001
mp-1025891,Te4Mo2WS2,0.2168000000000001
mp-1025896,Mo2W(SeS2)2,0.5867
mp-1025906,Mo3(Se2S)2,0.7662
mp-1025910,Te4Mo2WS2,0.18690000000000007
mp-1025911,Mo2WS6,1.2926000000000002
mp-1025917,MoW2(SeS2)2,0.6113000000000004
mp-1025919,MoW2(SeS2)2,0.6116999999999999
mp-1025925,Mo3(SeS2)2,0.6036999999999999
mp-1025933,Te2Mo2W(SeS)2,0.2633000000000001
mp-1025934,Mo2W(SeS2)2,0.5194999999999999
mp-1025937,Te4Mo3S2,0.1554000000000002
mp-1025941,Mo2W(SeS2)2,0.6491000000000002
mp-1025946,Mo2W(Se2S)2,0.7075
mp-1025948,Mo2W(SeS2)2,0.6349999999999998
mp-1025956,Te2Mo2W(SeS)2,0.3221000000000003
mp-1026015,Te2Mo2WS4,0.07010000000000005
mp-1026034,Mo(WS3)2,1.3041000000000005
mp-1026348,Te2W3Se4,0.1471
mp-1026349,Te2W3Se4,0.23000000000000045
mp-1026350,Te4W3Se2,0.3434999999999997
mp-1026351,Te6MoW2,0.5968999999999998
mp-1026356,Te4W3Se2,0.3689
mp-1026909,Mo3W(SeS)4,0.552
mp-1026910,MoW(SeS)2,0.6052999999999997
mp-1026911,MoW(SeS)2,0.5913000000000004
mp-1026912,Te2MoWSeS,0.2386000000000004
mp-1026916,MoSeS,0.6076999999999999
mp-1026927,Mo3W(SeS)4,0.6504999999999996
mp-1027549,Mo3W(Se3S)2,0.7342
mp-1027551,Mo3W(SeS)4,0.6898
mp-1027580,MoSeS,0.6547000000000001
mp-1027581,Te2Mo2SeS,0.22870000000000035
mp-1027594,MoWSeS3,0.4758
mp-1027600,Mo3W(SeS3)2,0.4687000000000001
mp-1027607,Te2Mo3W(SeS2)2,0.12740000000000018
mp-1027608,Mo2SeS3,0.5037000000000003
mp-1027624,MoWSeS3,0.4704999999999999
mp-1027641,Mo3W(SeS3)2,0.42410000000000014
mp-1027645,Mo3WS8,1.1872000000000005
mp-1027646,Mo3W(SeS3)2,0.5276000000000001
mp-1027647,MoWS4,1.2003
mp-1027671,MoW(SeS)2,0.7778
mp-1027672,MoWSe3S,0.8466
mp-1027687,MoSeS,0.6042000000000001
mp-1027714,Mo3W(SeS)4,0.6507999999999998
mp-1027781,Mo3W(Se3S)2,0.6840999999999999
mp-1027802,Mo3W(Se3S)2,0.8835000000000002
mp-1027890,Mo2SeS3,0.5507
mp-1027894,Mo3W(SeS)4,0.7101
mp-1028409,Mo3WSe8,0.9688
mp-1028414,MoWSe4,0.9440999999999996
mp-1028433,Te6MoW3Se2,0.3249000000000004
mp-1028441,WS2,1.6559
mp-1028452,Te3W2Se,0.3096000000000005
mp-1028456,TeWSe,0.2897999999999996
mp-1028459,TeWSe,0.29190000000000005
mp-1028467,MoW3(Se3S)2,0.8915000000000002
mp-1028471,Te2MoWSeS,0.0017999999999998015
mp-1028478,MoW3(SeS)4,0.6242000000000001
mp-1028483,Te2MoWS2,0.3788
mp-1028487,W2SeS3,0.6294
mp-1028488,WSeS,0.7584
mp-1028509,Te2MoW3(SeS2)2,0.09660000000000002
mp-1028510,Te4MoW3(SeS)2,0.007000000000000117
mp-1028514,MoWSe4,0.9425
mp-1028539,Te2MoWSe2,0.03880000000000017
mp-1028558,W2SeS3,0.7471999999999999
mp-1028576,Te8MoW3,0.5643000000000002
mp-1028583,Te6MoW3Se2,0.3292999999999999
mp-1028586,Te2W,0.6218000000000004
mp-1028589,TeWSe,0.26629999999999976
mp-1028592,Te3MoWSe,0.0005999999999999339
mp-1030700,Te2MoWSeS,0.1368999999999998
mp-1030721,Te3Mo2Se,0.16480000000000006
mp-1030736,Te4Mo3WSe4,0.05379999999999985
mp-1030742,MoW(SeS)2,0.6036999999999999
mp-1030745,MoWSeS3,0.5539000000000001
mp-1184150,ErAlO3,3.0965
mp-1186075,Na3SO4F,5.1484000000000005
mp-1206989,TbBiPt,0.4808000000000003
mp-861715,Li3Mn2(PO4)3,1.3951000000000002
mp-1003486,CaMnO2,2.2291
mp-1003770,MgMn2O4,1.0341999999999998
mp-1004038,CaMn2O4,1.5091
mp-1004376,NaMn2O4,0.5139999999999998
mp-1006058,UCd2O5,2.0821
mp-1007694,SnPO4F,2.6443000000000003
mp-1007768,ZnHCO4,0.0005999999999999339
mp-1014204,Sn5(S2Cl)2,0.5160999999999998
mp-1016820,MgSnO3,0.8352999999999993
mp-1016821,BaSiO3,0.9385000000000004
mp-1016827,MgGeO3,1.0860999999999992
mp-1016873,CaHfO3,3.6644
mp-1016879,CdSiO3,0.6502999999999997
mp-1016884,CaGeO3,0.5053999999999998
mp-1016903,CdGeO3,0.10599999999999987
mp-1016928,MgSiO3,2.557100000000001
mp-1017439,SrSiO3,2.3766
mp-1018807,MoSe2,1.2530999999999994
mp-1018809,MoS2,1.3377
mp-1018818,NdTeCl,0.4199999999999999
mp-1018941,PrTeCl,0.4276
mp-1019269,Sr2H3I,2.0576000000000003
mp-1019322,Te2W,0.9395999999999995
mp-1019741,HeSiO2,6.4897
mp-1019784,K2SN2O5,3.2162
mp-1020057,LiLaO2,3.7336
mp-1020193,KNO3,2.8988
mp-1020587,SrMg3SiN4,2.4133
mp-1020594,Zn2SiO4,2.6732
mp-1020598,Y4Si2S3O7,2.4610000000000003
mp-1020608,SiP2O7,4.9422000000000015
mp-1020626,Zr2Ga(PO4)3,4.1869999999999985
mp-1020628,SrGe(PO4)2,4.0919
mp-1020654,SrBeB2O5,5.6873000000000005
mp-1020711,Rb2Si(S2O7)3,5.2546
mp-1020721,Zn2SiO4,2.2529000000000003
mp-1026946,Mo3W(SeS3)2,0.4879000000000002
mp-1026974,MoWSe3S,0.6717
mp-1026981,Te3MoWS,0.012099999999999778
mp-1026983,Te2Mo2SeS,0.10150000000000016
mp-1027015,Te2MoWSeS,0.01890000000000036
mp-1028594,Te4MoW,0.5339
mp-1028595,Te6MoW3Se2,0.005700000000000038
mp-1028597,Te2MoWSe2,0.02610000000000001
mp-1028598,Te3W2Se,0.30849999999999955
mp-1028607,Te4MoW3Se4,0.1368999999999998
mp-1028622,Te4MoW3S4,0.03100000000000014
mp-1028635,Te2Mo(WSe2)3,0.06459999999999999
mp-1028643,Te3MoWS,0.025799999999999827
mp-1028646,Te6MoW3Se2,0.3026999999999997
mp-1028653,Te4MoW3Se4,0.2661000000000002
mp-1028654,Te4MoW3Se4,0.2727000000000004
mp-1028663,WSeS,0.7620999999999998
mp-1034098,KRbMg14O15,2.1229
mp-1034270,RbMg14BO15,0.2942999999999998
mp-1034284,RbMg14BO15,1.1715
mp-1034374,RbMg14BO15,1.7464000000000004
mp-1034744,NaMg14BO15,1.9427000000000003
mp-1034797,RbNaMg14O15,1.3200000000000005
mp-1034839,RbNaMg14O15,1.1056
mp-1035479,RbLiMg14O15,1.2721
mp-625230,Zn(HO)2,1.9872
mp-625256,H5IO6,2.2191
mp-625272,Zn(HO)2,2.0603
mp-625274,H5IO6,1.8659
mp-625316,Al(HO)3,4.9764
mp-625320,Al(HO)3,4.6972
mp-625487,Zn(HO)2,2.4257
mp-625541,Sn3(HO2)2,2.3038
mp-625548,Cd(HO)2,1.6369999999999998
mp-625551,Mo(HO2)2,2.3613
mp-625555,H7BrO3,3.5976
mp-625557,Cd(HO)2,1.2454999999999998
mp-625563,Mo(HO2)2,2.5375
mp-625572,H5BrO2,4.1623
mp-625578,H5BrO2,4.0871
mp-625596,H9BrO4,4.166
mp-625614,H9BrO4,3.9354
mp-625616,H9BrO4,4.2009
mp-625630,TeHO3,2.1456
mp-625631,H4N2O3,1.374
mp-625632,H9BrO4,4.0408
mp-625652,H9BrO4,3.6496
mp-625654,TeHO3,2.0788
mp-625657,TeHO3,2.1801
mp-652806,UNi7(BO4)4,0.7572000000000001
mp-653454,K2ZnCl4,4.4036
mp-653559,P4Se3I2,1.7165
mp-653560,NaSr2CrF8,4.0386
mp-653579,Re3S4Cl,1.6338000000000004
mp-695992,LiH2BrO5,1.8113
mp-695995,ReSbH4O7,2.8339999999999996
mp-696075,Ca2H2S2O9,5.1689
mp-696127,Li10Ge(PSe6)2,1.0491
mp-696128,Li10Ge(PS6)2,2.0551
mp-696136,Li10Sn(PO6)2,3.3917
mp-696181,UH12(NO4)2,2.3374
mp-696189,TlH6(NO4)3,1.8483
mp-696195,YSeF,2.1589
mp-696216,HS3N,2.7266
mp-696291,ZnH4(NO4)2,3.3139999999999996
mp-743867,TiMnO3,1.2289000000000003
mp-743873,SrLaMnSbO6,1.8424
mp-743876,Cr2CdH14(NO2)4,2.7714
mp-743882,VH5Se2NO7,2.0851
mp-743895,VH7(CO2)4,1.8948
mp-743915,VPH6C2N3O7,1.7746
mp-743916,NiH14C10(N4O)2,3.9483
mp-743928,Rb3LiZn2(MoO4)4,4.0278
mp-757089,LiIO4,2.1838
mp-757116,Rb3ErO3,2.0414000000000003
mp-757119,LiCu2F5,0.0702
mp-757142,LiNb(PO3)4,0.9699
mp-757144,Rb2H8O5,3.5875
mp-757150,Li5BiS4,1.5608999999999995
mp-757155,Nb(PO3)4,0.13339999999999996
mp-757159,LiSiBiO4,3.1885000000000003
mp-757176,BaYF5,6.4944
mp-757192,SnP2O7,3.9343
mp-757209,LiCuPO4,0.16220000000000012
mp-757224,Th4P6O23,4.1911
mp-757256,ZnH4(IO4)2,3.2826
mp-762897,Li2V(PO4)2,1.2191
mp-762904,LiCoSiO4,1.2292999999999998
mp-762911,FeOF,0.7532999999999999
mp-762922,Li2VO2F,1.7004
mp-762930,Li3(NiO2)5,0.22529999999999986
mp-765076,LiMnOF2,1.2316
mp-765078,LiVCrP2(HO5)2,1.406
mp-765093,LiSb(PO3)4,3.4616
mp-765097,W2OF8,2.5313
mp-767961,Ti3Mn2P6WO24,0.08400000000000007
mp-767973,Li2Fe(SiO3)2,3.2217
mp-767981,NiOF2,0.7987
mp-767983,LiV(CO3)2,2.1593
mp-767984,Li2NiP2O7,4.3660000000000005
mp-767985,Li2NiP2O7,4.169
mp-767990,LiV(CO3)2,2.04
mp-767996,Li3Fe2(SiO4)2,1.6259
mp-767997,LiNiPO4,3.3747
mp-767999,Ti3Mn2Co3O16,0.03880000000000017
mp-771005,LuTa3O9,2.6285
mp-771047,Mn(IO3)2,2.5127
mp-771055,EuZrO3,0.26510000000000034
mp-771058,Li4Cr3CoO8,0.5942999999999996
mp-771060,Na5LiNi2P2(CO7)2,3.9759
mp-771065,Li4CrFe3O8,1.8784
mp-771071,Li2FeBO4,2.5281
mp-771077,LiFeB2O5,2.5189000000000004
mp-771082,Li4CrFe3O8,1.7126
mp-774092,Na3CoO3,1.1156
mp-774106,Li3Fe2(SiO4)2,1.5112
mp-774131,V3Sb(PO4)4,1.5302999999999995
mp-774140,TiNi(PO4)2,2.7069
mp-774151,VSb(PO4)2,1.9271
mp-777901,Li2VF5,2.1904
mp-777924,Li2Fe3F8,2.9391000000000003
mp-777927,Li24TiCr11O36,0.9087
mp-777932,LiMnF3,3.5986
mp-777934,Li3FeOF3,3.6437
mp-777935,MnOF,0.022599999999999957
mp-777945,TiMn4O10,1.4752999999999998
mp-777947,Ni3OF5,0.30299999999999994
mp-849231,Fe6OF11,0.7996000000000001
mp-849238,Li2MnSiO4,2.8824
mp-600004,SiO2,5.4296
mp-600007,SiO2,5.6069
mp-600014,SiO2,5.7274
mp-600015,SiO2,5.6014
mp-600018,SiO2,5.4453
mp-600024,SiO2,5.75
mp-600026,SiO2,5.1530000000000005
mp-600027,SiO2,5.5226000000000015
mp-600028,SiO2,5.5863
mp-600029,SiO2,5.4247000000000005
mp-600032,SiO2,5.7155000000000005
mp-600038,SiO2,5.4989
mp-600041,SiO2,5.4651999999999985
mp-600045,SiO2,5.4237
mp-600049,SiO2,5.646800000000002
mp-600050,SiO2,5.8144
mp-600052,SiO2,5.4991
mp-600060,SiO2,5.6831999999999985
mp-600061,SiO2,5.6122
mp-600063,SiO2,5.6966
mp-600067,SiO2,5.74
mp-600071,SiO2,5.4719
mp-625664,H4N2O3,0.7247
mp-625668,Mn(HO)2,1.734
mp-625676,H4N2O3,4.999
mp-625735,MoH4O5,2.5602
mp-625739,Al(HO)3,4.8633
mp-625768,MoH4O5,2.2107
mp-625788,La(HO)3,4.0057
mp-625789,Sn3(HO2)2,2.2044999999999995
mp-625790,H8N2O,4.0837
mp-625801,Sr(H8O5)2,3.8434
mp-625803,Sr(H8O5)2,3.8525
mp-625809,Ba(H2O3)2,2.4825
mp-625812,Sr(H2O3)2,2.4406
mp-625815,H8N2O,3.9425
mp-625821,Sr(H2O3)2,2.7961
mp-625824,Sr(H8O5)2,3.4704
mp-625832,Ba(H2O3)2,2.5448
mp-625836,Sr(H2O3)2,3.034
mp-625850,H7NO6,3.1283000000000003
mp-625856,TeHO3,2.0451
mp-625868,H7NO6,3.45
mp-625871,Sr(H2O3)2,0.5135
mp-625890,H5IO6,1.6184
mp-625894,Ba(H2O3)2,0.2549
mp-625909,Ba(H2O3)2,2.7803
mp-625913,TeHO3,2.1791
mp-625928,HI3O8,2.4683000000000006
mp-625930,V3(HO2)4,0.8161999999999999
mp-625937,H7NO6,3.3381
mp-625948,H7NO6,3.4969
mp-625957,Ta2H4O7,3.0296
mp-625964,Ba(H2O3)2,0.12349999999999994
mp-625994,H4N2O3,1.4509999999999998
mp-626006,H4N2O3,2.0109000000000004
mp-626015,Ba(H2O3)2,0.1985
mp-626062,U3(HO5)2,1.9927
mp-626074,Al(HO)3,4.614999999999998
mp-626083,Si2H2O5,5.274100000000002
mp-626085,Si2H2O5,4.5416
mp-626093,H7NO6,3.4939
mp-626114,U3(HO5)2,1.8846
mp-626127,H7NO6,1.6933
mp-626136,H3ClO5,4.7532999999999985
mp-626197,Sr(H8O5)2,3.5178000000000003
mp-626210,Sr(H8O5)2,3.4569
mp-626219,H5ClO6,4.7683
mp-626221,V3H5O8,0.6708000000000003
mp-626222,H5ClO6,4.5673
mp-626225,Ca(H8O5)2,3.5137
mp-626230,Ca(H8O5)2,3.9044
mp-626241,Sr(H8O5)2,3.4424
mp-626260,Sr(H8O5)2,3.7903
mp-626264,Ba(H8O5)2,3.8287
mp-626267,Ca(H8O5)2,3.8401
mp-626268,Ba(H8O5)2,3.904
mp-626271,Sr(H8O5)2,3.5407
mp-653925,Sr2DyGaCu2O7,0.3521000000000001
mp-654105,RhC2ClO2,1.7196
mp-654109,BaCu4S3,0.4519000000000002
mp-654139,Nd2Ti4O11,3.1437000000000004
mp-654305,Tl2FeC5N6O,2.4172
mp-655027,SrH6(CO3)2,3.3466
mp-655048,LiAlSiH2O5,4.3331
mp-655052,CuH2(CO2)2,0.20319999999999994
mp-655057,LiAlSiH2O5,3.0209
mp-655586,NaClO3,0.5132000000000001
mp-656850,Ti2O7,1.154
mp-657336,MgSiO3,2.4376
mp-657338,MgSiO3,4.3843
mp-657353,BaZn(SeO3)2,0.6963000000000001
mp-657378,Na3Si2PO8,3.1493999999999995
mp-657543,SrAl2(SiO4)2,0.8165
mp-657716,Li2Fe3(P2O7)2,3.605
mp-696329,RbCa(H2N)3,1.8986
mp-696420,ZnH8C2(SN3)2,4.2828
mp-696457,ScP3(HO2)6,5.3068
mp-696659,H4N2O3,3.3864
mp-696794,RbHSeO4,3.6244
mp-696842,NaH3(SeO3)2,4.2406
mp-696851,ZnH12C2S2(N3O4)2,4.6106
mp-696871,LaAlO3,3.5818999999999988
mp-696940,TiH12C2(NF)6,2.8143
mp-696989,NaPH5C2SN3O4,3.5376
mp-696990,NaPH3C2N3O4,3.6133
mp-696993,Sn2H2SO5F2,3.7596
mp-696994,Zr2H16SN3(O2F3)3,4.0768
mp-696998,K6BiH3(Cl2F)4,4.1881
mp-697027,NaSi2(HO2)3,5.078799999999998
mp-697087,SbH2(NF2)3,0.11749999999999995
mp-697253,SiH12C2(NF)6,5.1981
mp-697367,NaP(HO2)2,5.0808
mp-697558,SbH12C2N6F5,4.946000000000001
mp-697575,Rb2ZnH4,4.0139
mp-697593,Te7WCl5O,0.6447000000000003
mp-697645,H13Se2N3O8,3.5428
mp-697664,LiCr4(PO4)3,2.0697
mp-697726,Li2CoP2O7,3.0108
mp-743965,SiH12N2(O2F3)2,0.5504
mp-743987,Ti3V2O9,0.7782999999999998
mp-743989,VH10SO10,3.1014
mp-744032,VH12C2S2(O2F)6,2.4226
mp-744149,NaCa3MgFe(Si2O7)2,0.7612000000000001
mp-744184,TbFeGe2O7,2.592
mp-744205,K2Cr2AsHO10,2.6728
mp-744328,VH7N2O5,2.5029
mp-744347,RbVH4(OF2)2,2.5428
mp-744532,CoH4SeO5,2.7378
mp-744533,SrV2P2(H4O7)2,2.2826
mp-744534,VH8N2O5F,2.367
mp-744577,FeP2HO7,2.4135
mp-757301,LiSn(PO3)3,3.9269
mp-757303,Mg17(As3O16)2,2.5512
mp-757306,LiCu(PO3)4,0.5950000000000001
mp-757310,ZnP2H14C2(NO)6,4.9663
mp-757325,Li3Ti(PO4)2,0.2443
mp-757349,LiSiBiO4,2.8189
mp-757375,Ti2Sn3O10,1.7265999999999997
mp-757383,LiSiBiO4,3.0935
mp-757407,Sr2Tl2O5,0.9457999999999998
mp-757428,Cd2Si(P2O7)2,3.937100000000001
mp-757480,Ti5Pb5O14,0.4157000000000002
mp-757490,LiSnPO4,3.3675
mp-757495,Sn(PO3)4,2.954
mp-757504,ZrTi2O6,2.6528
mp-757507,Sm3Bi5O12,2.5489999999999995
mp-757532,LiSnP2O7,0.0732999999999997
mp-757541,LiSiBiO4,3.1337999999999995
mp-757547,Li2Sn3(P2O7)2,3.0831000000000004
mp-762937,LiCo2(CO3)4,0.3133999999999999
mp-762939,Li5V5O12,0.3938999999999999
mp-762953,LiFe2OF5,1.9765
mp-762973,Li4V(PO3)6,2.8955
mp-762980,VO2F,1.6265
mp-762988,LiMnF3,3.595
mp-762990,LiCr(PO3)4,2.5311000000000003
mp-762991,FeOF,0.40290000000000026
mp-762995,Li2MnF4,4.1274
mp-762997,FeOF,0.9123
mp-762998,Li2MnF5,0.8734
mp-763002,Fe4O3F5,1.2359000000000002
mp-763003,LiMnF3,3.1237
mp-763004,LiMnF3,3.51
mp-763009,FeOF,1.8912
mp-763011,LiMnF4,0.9221
mp-763016,FeOF,1.7737
mp-763018,FeOF,0.6595
mp-763022,FeOF,1.7182999999999995
mp-763026,V3(O2F)2,0.4095
mp-763029,FeOF,1.3802
mp-763030,LiMnF3,3.4187000000000003
mp-763031,Fe4O3F5,1.1787
mp-763032,Fe4O3F5,0.6957
mp-763035,FeOF,0.6735000000000002
mp-763039,Fe2OF3,1.3483
mp-763040,Fe4O3F5,0.7379
mp-763043,Fe2OF3,1.5519999999999998
mp-763058,FeOF,1.2563
mp-763060,LiCoPO4,2.778
mp-763062,LiNiPO4,3.3739000000000003