task_id,composition,band_gap
mp-1189811,Ce(Sb3Ru)4,0.0
mp-1078778,Ce(SbPd)2,0.0
mp-1080285,Ce(SbSe2)2,0.0
mp-5605,Ce(SiAg)2,0.0
mp-5173,Ce(SiAu)2,0.0
mp-569496,Ce(SiAu2)2,0.0
mp-21900,Ce(SiIr)2,0.0
mp-4537,Ce(SiNi)2,0.0
mp-4767,Ce(SiOs)2,0.0
mp-3826,Ce(SiPd)2,0.0
mp-22438,Ce(SiPt)2,0.0
mp-4090,Ce(SiRh)2,0.0
mp-3566,Ce(SiRu)2,0.0
mp-34009,Ce(SmS2)2,0.0
mp-1104512,Ce(Sn2Pd)2,0.0
mp-1193462,Ce(Sn2Rh)2,0.0
mp-21358,Ce(SnIr)2,0.0
mp-1080026,Ce(SnPd)2,0.0
mp-672267,Ce(SnPt)2,0.0
mp-1079827,Ce(SnRh)2,0.0
mp-567387,Ce(TiAl10)2,0.0
mp-1188911,Ce(TmS2)3,0.0
mp-1006324,Ce(YS2)3,0.0
mp-1227796,Ce(YSi)4,0.0
mp-1199912,Ce(Zn10Ir)2,0.0
mp-1077954,Ce(ZnAu2)2,0.0
mp-1213847,Ce(ZnP)3,0.0
mp-569274,Ce10(B3C4)3,0.0
mp-1227879,Ce10(NiSn)3,0.0
mp-571439,Ce10Ga5Br4,0.0
mp-30276,Ce10Ga5Cl4,0.0
mp-579209,Ce10S14O,0.0
mp-645688,Ce10S19,0.0
mp-652044,Ce10Se19,0.0
mp-694972,Ce10Si10BrN17O9,0.0
mp-1227652,Ce10Si5Ni,0.0
mp-555617,Ce10Si8O3,0.0
mp-645273,Ce10Te19,0.0
mp-676880,Ce10US16,0.0
mp-1213990,Ce11(Ni2Ge3)2,0.0
mp-1192200,Ce11In9Ni4,0.0
mp-675160,Ce11MnS16,0.0
mp-684020,Ce12C6I17,0.0
mp-637609,Ce12InPt7,0.0
mp-1214514,Ce12Sn5Ge3,0.0
mp-684627,Ce13O24,0.0
mp-568360,Ce13Zn58,0.0
mp-624355,Ce14Si11Ni6,0.0
mp-1229288,Ce15Ni32,0.0
mp-684594,Ce16O27,0.0
mp-570369,Ce16Ru9,0.0
mp-673643,Ce17O32,0.0
mp-1196346,Ce18C18Cl11,0.0
mp-1213885,Ce2(Al3Ir)3,0.03829999999999957
mp-567554,Ce2(Al5Ru)3,0.0
mp-1213867,Ce2(CN2)3,0.0
mp-1226892,Ce2(CoCu)5,0.0
mp-1025560,Ce2(CuGe)3,0.0
mp-1226995,Ce2(CuNi)5,0.0
mp-1206459,Ce2(CuSn)3,0.0
mp-1213907,Ce2(Ga3Rh)3,0.0
mp-1214327,Ce2(Ga3Ru)3,0.0
mp-697672,Ce2(GeO3)3,0.0
mp-1227310,Ce2(InSn)3,0.0
mp-1226915,Ce2(MnCu3)3,0.0
mp-1226973,Ce2(MnNi)5,0.0
mp-1206740,Ce2(PRh)3,0.0
mp-1226828,Ce2(PdRh)3,0.0
mp-18287,Ce2(SbPd3)3,0.0
mp-638687,Ce2(SeO3)3,0.0
mp-1193751,Ce2(Si2Pd7)3,0.0
mp-1226905,Ce2(TlSn)3,0.0
mp-11665,Ce2(Zn2Ge)3,0.0
mp-17567,Ce2(ZnGe2)3,0.0
mp-569703,Ce20Mg19Zn81,0.0
mp-651710,Ce20Ti11(S22O3)2,0.0
mp-647805,Ce21Fe8Bi7C12,0.0
mp-1214774,Ce23Cd4Ir7,0.0
mp-680512,Ce25Ni49P33,0.0
mp-1183760,Ce2AgHg,0.0
mp-867239,Ce2AgPb,0.0
mp-1183725,Ce2AgSn,0.0
mp-1226920,Ce2Al11Pd3,0.0
mp-570981,Ce2Al16Pt9,0.0
mp-1226826,Ce2Al2PdPt,0.0
mp-1226882,Ce2Al3Fe,0.0
mp-1226834,Ce2Al3GaPd4,0.0
mp-18232,Ce2Al3Ge4,0.0
mp-1226835,Ce2Al3Ru,0.0
mp-1227005,Ce2Al41Mo3,0.0
mp-1226991,Ce2Al6CuAu,0.0
mp-1226839,Ce2AlFe3,0.0
mp-1227010,Ce2AlGaNi2,0.0
mp-1105912,Ce2AlGe6,0.0
mp-1025275,Ce2AlNO3,0.0
mp-1078316,Ce2AlRu2,0.0
mp-30898,Ce2B2Ir5,0.0
mp-1077367,Ce2Bi,0.0
mp-606121,Ce2Bi5Rh3,0.0
mp-1078363,Ce2BiN,0.0
mp-23003,Ce2BiO2,0.0
mp-570537,Ce2Br3N,0.0
mp-1104603,Ce2Br5,0.0
mp-1025352,Ce2C(NO)2,0.0
mp-1078814,Ce2C2Cl,0.0
mp-20181,Ce2C3,0.0
mp-1213870,Ce2CN3Cl,0.0
mp-1103370,Ce2Cd(SeO)2,0.0
mp-1215055,Ce2Cd17,0.0
mp-1078672,Ce2CdCu2,0.0
mp-985438,Ce2CdHg,0.0
mp-1183867,Ce2CdIn,0.0
mp-1183762,Ce2CdPb,0.0
mp-11965,Ce2CdPd2,0.0
mp-11964,Ce2CdPt2,0.0
mp-34145,Ce2CdS4,0.0
mp-1226843,Ce2CdSb4,0.0
mp-34175,Ce2CdSe4,0.0
mp-1206758,Ce2Cl2O,0.0
mp-1191328,Ce2Co12P7,0.0
mp-1227675,Ce2Co16Cu,0.0
mp-2216,Ce2Co17,0.0
mp-1213920,Ce2Co17H3,0.0
mp-1189037,Ce2Co3Si5,0.0
mp-1196386,Ce2Co7,0.0
mp-504616,Ce2Co7B3,0.0
mp-1227056,Ce2CoGe4Ru3,0.0
mp-1226767,Ce2CoRu3,0.0
mp-20355,Ce2CoSi3,0.0
mp-1147587,Ce2Cu(NO)2,0.0
mp-1227915,Ce2Cu11Au,0.0
mp-1227069,Ce2Cu3Sb4,0.0
mp-1195928,Ce2CuBiS5,0.0
mp-1226816,Ce2CuGe3,0.0
mp-5684,Ce2CuGe6,0.0
mp-1213871,Ce2CuS2O,0.0
mp-1226885,Ce2CuSi3,0.0
mp-1078159,Ce2Fe(SeO)2,0.0
mp-1188210,Ce2Fe12Co5,0.0
mp-1191482,Ce2Fe12Co5N3,0.0
mp-541196,Ce2Fe12P7,0.0
mp-4459,Ce2Fe14B,0.0
mp-1215108,Ce2Fe14C,0.0
mp-1227149,Ce2Fe17C,0.0
mp-1191404,Ce2Fe17C3,0.0
mp-1190701,Ce2Fe17H3,0.0
mp-5662,Ce2Fe17N3,0.0
mp-1227651,Ce2Fe20Si2C,0.0
mp-1078984,Ce2Fe2S2O3,0.0
mp-1214220,Ce2Fe2S5,0.0
mp-1078283,Ce2Fe2Se2O3,0.0
mp-1025289,Ce2Fe2Si2C,0.0
mp-1226906,Ce2Fe3Rh,0.0
mp-1226857,Ce2FeRu3,0.0
mp-1226814,Ce2FeSi3,0.0
mp-7720,Ce2Ga10Ni,0.0
mp-12746,Ce2Ga10Pd,0.0
mp-5981,Ce2Ga12Cu,0.0
mp-567195,Ce2Ga12Ni,0.0
mp-568885,Ce2Ga12Pd,0.0
mp-1106200,Ce2Ga2Co15,0.0
mp-1182265,Ce2Ga2Fe15,0.0
mp-1226999,Ce2Ga3Cu,0.0
mp-1226987,Ce2Ga5Au3,0.0
mp-1226949,Ce2Ga5Cu3,0.0
mp-1226980,Ce2Ga7Pd,0.0
mp-1193354,Ce2Ga9CoGe2,0.0
mp-1226896,Ce2Ge2IrRh,0.0
mp-1226876,Ce2Ge3Rh,0.0
mp-567664,Ce2Ge4Pt7,0.0
mp-1188091,Ce2Ge5Ir3,0.0
mp-1106369,Ce2Ge5Rh3,0.0
mp-1104579,Ce2H5,0.0
mp-1227797,Ce2HfCo16,0.0
mp-985298,Ce2HfS5,0.0
mp-1006367,Ce2HfSe5,0.0
mp-1183809,Ce2HgPb,0.0
mp-19733,Ce2In,0.0
mp-1226938,Ce2In2PdRh,0.0
mp-645068,Ce2In3Ru2,0.0
mp-604594,Ce2In5Pd4,0.0
mp-19989,Ce2In8Co,0.0
mp-1207157,Ce2In8Ir,0.0
mp-1102172,Ce2In8Pd,0.0
mp-1103614,Ce2In8Pt,0.0
mp-1206465,Ce2In8Rh,0.0
mp-1227262,Ce2InAg,0.0
mp-1206585,Ce2InAu2,0.0
mp-1206783,Ce2InCu2,0.0
mp-642448,Ce2InCuSe5,0.0
mp-20959,Ce2InGe2,0.0
mp-640108,Ce2InNi2,0.0
mp-20165,Ce2InPd2,0.0
mp-20357,Ce2InPt2,0.0
mp-1205710,Ce2InRh2,0.0
mp-1190097,Ce2Ir7,0.0
mp-1094918,Ce2Mg,0.0
mp-680564,Ce2Mg17,0.0
mp-1226970,Ce2Mg5Au,0.0
mp-984682,Ce2MgAl,0.0
mp-1183801,Ce2MgCd,0.0
mp-1227012,Ce2MgCo9,0.0
mp-22511,Ce2MgGe2,0.0
mp-1184007,Ce2MgIn,0.0
mp-19910,Ce2MgNi2,0.0
mp-1183811,Ce2MgPb,0.0
mp-1232202,Ce2MgS4,0.0
mp-1232108,Ce2MgSe4,0.0
mp-505296,Ce2MgSi2,0.0
mp-1226954,Ce2MgZn,0.0
mp-1226784,Ce2Mn(SeO)2,0.0
mp-1227057,Ce2Mn17C2,0.0
mp-1078566,Ce2Mn2Se2O3,0.0
mp-1226844,Ce2Mn3Al,0.0
mp-1191913,Ce2Mn3Cu9As7,0.0
mp-1192355,Ce2Mn3Cu9P7,0.0
mp-1226880,Ce2Mn3Si4Pd,0.0
mp-1227019,Ce2Mn7Al10,0.0
mp-10068,Ce2MnN3,0.0
mp-13263,Ce2Mo2C3,0.0
mp-1101996,Ce2NCl3,0.0
mp-1191623,Ce2Ni12As7,0.0
mp-1214085,Ce2Ni12P5,0.0
mp-569521,Ce2Ni12P7,0.0
mp-569096,Ce2Ni22C3,0.0
mp-22713,Ce2Ni2Sn,0.0
mp-1213960,Ce2Ni3Ge5,0.0
mp-1095458,Ce2Ni5B4,0.0
mp-1204381,Ce2Ni7,0.0
mp-505789,Ce2Ni7P4,0.0
mp-21169,Ce2NiB10,0.0
mp-1102475,Ce2NiGe3,0.0
mp-1226780,Ce2NiPt,0.0
mp-1226785,Ce2NiRu3,0.0
mp-1227353,Ce2NiSn2Pt,0.0
mp-1227379,Ce2NiSn4,0.0
mp-542313,Ce2O3,0.0
mp-628664,Ce2P3Au,0.0
mp-1102498,Ce2PPt8,0.0
mp-675925,Ce2PbS4,0.0
mp-676072,Ce2PbSe4,0.0
mp-21443,Ce2Pd2Pb,0.0
mp-1226790,Ce2PrO6,0.0
mp-1025285,Ce2Re2Si2C,0.0
mp-1197667,Ce2Re3Si5,0.0
mp-985704,Ce2ReC2,0.0
mp-1190870,Ce2S4O17,0.11880000000000004
mp-3972,Ce2SO2,0.0
mp-1080287,Ce2Sb2Se5,0.0
mp-1196528,Ce2Sb4Ir3,0.0
mp-1200949,Ce2Sb4Rh3,0.0
mp-1226895,Ce2SbAu3,0.0
mp-20356,Ce2SbO2,0.0
mp-629511,Ce2SbS5Br,0.0
mp-1226772,Ce2SbTe,0.0
mp-505512,Ce2Sc3Si4,0.0
mp-1205723,Ce2ScSi2,0.0
mp-27617,Ce2SeF4,0.0
mp-754640,Ce2SeO2,0.0
mp-1226737,Ce2SeS,0.0
mp-1202894,Ce2Si2Ni15,0.0
mp-1226865,Ce2Si2NiPt,0.0
mp-672208,Ce2Si2O7,0.0
mp-1205534,Ce2Si2Sn,0.0
mp-1226801,Ce2Si3,0.0
mp-1226898,Ce2Si3Ni,0.0
mp-31163,Ce2Si3Rh,0.0
mp-1226778,Ce2Si4OsRu3,0.0
mp-567579,Ce2Si4Pt7,0.0
mp-1105703,Ce2Si5Ir3,0.0
mp-1227485,Ce2Si5Ni17,0.0
mp-1183797,Ce2Si5Ni3,0.0
mp-1213852,Ce2Si5Pd3,0.0
mp-1188214,Ce2Si5Rh3,0.0
mp-1079241,Ce2Si7,0.0
mp-628614,Ce2Si7Rh15,0.0
mp-1227027,Ce2Si9Ni17,0.0
mp-1226899,Ce2SiGe,0.0
mp-1203477,Ce2SiPd14,0.0
mp-558269,Ce2SiS5,0.0
mp-542664,Ce2SiSeO4,0.0
mp-37045,Ce2SmS4,0.0
mp-1213936,Ce2Sn3,0.0
mp-541131,Ce2Sn5,0.0
mp-1183747,Ce2SnHg,0.0
mp-1206052,Ce2SnPd2,0.0
mp-1106406,Ce2SnS5,0.0
mp-1006368,Ce2SnSe4,0.0
mp-31248,Ce2Te4O11,0.0
mp-1104233,Ce2Te5,0.0
mp-4873,Ce2TeO2,0.0
mp-1226732,Ce2TeSe,0.0
mp-759386,Ce2Th2O7,0.0
mp-1226812,Ce2ThS3,0.0
mp-1201912,Ce2ThS5,0.0
mp-1227780,Ce2Ti2Fe22H,0.0
mp-560000,Ce2Ti2SiO9,0.0
mp-768309,Ce2TiO5,0.0
mp-1183716,Ce2TlAg,0.0
mp-1226883,Ce2U2O9,0.0
mp-773114,Ce2U3O10,0.0
mp-1226776,Ce2UO6,0.0
mp-985558,Ce2US5,0.0
mp-676083,Ce2USe4,0.0
mp-985277,Ce2USe5,0.0
mp-676497,Ce2UTe4,0.0
mp-1227655,Ce2VCo16,0.0
mp-1227428,Ce2VFeO6,0.0
mp-1215148,Ce2W4S3O14,0.0
mp-567492,Ce2WC2,0.0
mp-1214437,Ce2WO6,0.0
mp-1226822,Ce2Y(AlPd)3,0.0
mp-1207182,Ce2YSi2,0.0
mp-1195151,Ce2Zn(SeO)2,0.0
mp-978252,Ce2Zn17,0.0
mp-640899,Ce2Zn2Cu5,0.0
mp-1189370,Ce2Zn2Sn2H3,0.0
mp-1226833,Ce2Zn3Cu7,0.0
mp-606377,Ce2Zn4Ru,0.0
mp-1106202,Ce2Zn5Sn,0.0
mp-1226818,Ce2ZnBi4,0.0
mp-985471,Ce2ZnHg,0.0
mp-1183763,Ce2ZnIn,0.0
mp-977439,Ce2ZnPb,0.0
mp-1226796,Ce2ZnSb4,0.0
mp-560329,Ce2Zr2O7,0.0
mp-1227870,Ce2ZrCo16,0.0
mp-1203122,Ce2ZrS5,0.0
mp-1194651,Ce2ZrSe5,0.0
mp-640597,Ce3(AgGe)4,0.0
mp-29113,Ce3(Al2Si3)2,0.0
mp-1213926,Ce3(Al3Os)4,0.0
mp-1199697,Ce3(Al3Pt2)2,0.0
mp-31079,Ce3(Al3Ru)4,0.0
mp-636773,Ce3(AlI)2,0.0
mp-3603,Ce3(BN2)2,0.0
mp-542881,Ce3(CuSn)4,0.0
mp-1213977,Ce3(GaRh)2,0.0
mp-672275,Ce3(Ge3Pd10)2,0.0
mp-21597,Ce3(GeRh)2,0.0
mp-1206300,Ce3(GeRh)4,0.0
mp-21556,Ce3(InRu)2,0.0
mp-1226900,Ce3(MgRh2)2,0.0
mp-1206464,Ce3(NiGe)4,0.0
mp-1214002,Ce3(P3Pd10)2,0.0
mp-1192814,Ce3(Si3Pd10)2,0.0
mp-504613,Ce3(Si4Ni)2,0.0
mp-1206722,Ce3(SiNi)4,0.0
mp-510324,Ce3(SiNi3)2,0.0
mp-1103548,Ce3(SiPd)4,0.0
mp-978253,Ce3(SiRh)2,0.0
mp-1215117,Ce3(Sn3Pd2)2,0.0
mp-867221,Ce3(TaN3)2,0.0
mp-1197596,Ce33Fe13(B9C17)2,0.0
mp-866604,Ce3AgGeS7,0.0
mp-1213865,Ce3Al11,0.0
mp-1229297,Ce3Al3Pd2Pt,0.0
mp-866516,Ce3AlCrS7,0.0
mp-1192925,Ce3AlFeS7,0.0
mp-10881,Ce3AlN,0.0
mp-1206367,Ce3AlO,0.0
mp-1192994,Ce3AlVS7,0.0
mp-1200622,Ce3As2ClO7,0.0
mp-675514,Ce3AsS3,0.0
mp-680695,Ce3B2(ClO2)3,0.0
mp-1192206,Ce3BeCrS7,0.0
mp-1105587,Ce3Bi4Au3,0.0
mp-984727,Ce3Br,0.0
mp-679986,Ce3Br6N,0.0
mp-1215059,Ce3C2Br3,0.0
mp-573743,Ce3CI5,0.0
mp-1183748,Ce3Cd,0.0
mp-1183784,Ce3Cl,0.0
mp-13765,Ce3Co11B4,0.0
mp-16083,Ce3Co29(Si2B5)2,0.0
mp-21915,Ce3Co4Sn13,0.0
mp-1214094,Ce3Co8Si,0.0
mp-1214556,Ce3CoGe2,0.0
mp-1183868,Ce3Cr,0.0
mp-1214072,Ce3Cr10N11,0.0
mp-1214308,Ce3CrS6,0.0
mp-1183872,Ce3Cu,0.0
mp-1189165,Ce3Cu3Sb4,0.0
mp-1213889,Ce3Cu4(P2O)2,0.0
mp-558303,Ce3CuGeS7,0.0
mp-570564,Ce3CuGeSe7,0.0
mp-558375,Ce3CuSiS7,0.0
mp-571472,Ce3CuSiSe7,0.0
mp-510567,Ce3CuSnS7,0.0
mp-542806,Ce3CuSnSe7,0.0
mp-985557,Ce3Dy,0.0
mp-1183435,Ce3Er,0.0
mp-1183912,Ce3Eu,0.0
mp-19920,Ce3Ga,0.0
mp-1104373,Ce3Ga10Ni,0.0
mp-1106087,Ce3Ga2,0.0
mp-30278,Ce3Ga4Cl,0.0
mp-569898,Ce3GaBr3,0.0
mp-1183889,Ce3Gd,0.0
mp-1200337,Ce3Ge,0.0
mp-1198260,Ce3Ge13Ir4,0.0
mp-1201534,Ce3Ge13Os4,0.0
mp-1204084,Ce3Ge13Ru4,0.0
mp-1213908,Ce3Ge5,0.0
mp-680221,Ce3Ge5Pd14,0.0
mp-1226804,Ce3GeS2,0.0
mp-1183827,Ce3Hf,0.0
mp-1213881,Ce3HfSb5,0.0
mp-1183746,Ce3Hg,0.0
mp-1183838,Ce3Ho,0.0
mp-1183731,Ce3I,0.0
mp-20984,Ce3In,0.0
mp-1214394,Ce3In4Ge,0.0
mp-20992,Ce3InC,0.0
mp-1192762,Ce3IrI3,0.0
mp-1038876,Ce3Mg,0.0
mp-1227195,Ce3Mg2InAu3,0.0
mp-669550,Ce3Mn(Al3Cu)8,0.0
mp-866500,Ce3MnAlS7,0.0
mp-639263,Ce3MnBi5,0.0
mp-667362,Ce3NCl6,0.0
mp-675921,Ce3NF6,0.0
mp-683997,Ce3NbS3O4,0.0
mp-1213895,Ce3NbSb5,0.0
mp-1226856,Ce3NdC8,0.0
mp-21136,Ce3Ni2B2N3,0.0
mp-1213875,Ce3Ni2Ge7,0.0
mp-1191014,Ce3NiGe2,0.0
mp-1213927,Ce3PBr3,0.0
mp-1213898,Ce3PI3,0.0
mp-985284,Ce3Pa,0.0
mp-570018,Ce3Pb,0.0
mp-20550,Ce3PbC,0.0
mp-1103851,Ce3Pd4,0.0
mp-1183767,Ce3Pm,0.0
mp-1226860,Ce3PrO8,0.0
mp-1104731,Ce3Pt2,0.0
mp-1104294,Ce3Pt4,0.0
mp-1103692,Ce3Rh2,0.0
mp-1214105,Ce3Rh4Pb13,0.0
mp-672261,Ce3Ru,0.0
mp-510277,Ce3S2O3,0.0021000000000004357
mp-1382,Ce3S4,0.0
mp-569941,Ce3Sb3Au2,0.0
mp-662558,Ce3Sb5Pd6,0.0
mp-1226836,Ce3SbAs2,0.0
mp-1226864,Ce3Sc,0.0
mp-1227866,Ce3Se2NO,0.0
mp-567370,Ce3Se4,0.0
mp-568452,Ce3Si11Pt23,0.0
mp-1079007,Ce3Si2,0.0
mp-558019,Ce3Si2BO10,0.0
mp-623044,Ce3Si2Rh3,0.0
mp-669378,Ce3Si2S8Br,0.0
mp-555409,Ce3Si2S8I,0.0
mp-1213874,Ce3Si2Sn3,0.0
mp-541712,Ce3Si6N11,0.0
mp-866605,Ce3SiAgS7,0.0
mp-18071,Ce3SiAgSe7,0.0
mp-1214037,Ce3SiI3,0.0
mp-1226845,Ce3SiS2,0.0
mp-1183782,Ce3Sm,0.0
mp-20735,Ce3Sn,0.0
mp-1200449,Ce3Sn13Ir4,0.0
mp-7203,Ce3Sn13Rh4,0.0
mp-1198582,Ce3Sn13Ru4,0.0
mp-1213912,Ce3Sn3Ge2,0.0
mp-1189084,Ce3Sn5,0.0
mp-1193042,Ce3Sn5Au6,0.0
mp-1105483,Ce3Sn6Ru,0.0
mp-28416,Ce3Sn7,0.0
mp-20159,Ce3SnC,0.0
mp-1206922,Ce3SnN,0.0
mp-558609,Ce3Ta(ClO2)3,0.0
mp-22422,Ce3Te4,0.0
mp-1183824,Ce3Th,0.0
mp-754176,Ce3Th3O11,0.0
mp-1226937,Ce3Th3Si4,0.0
mp-1183711,Ce3Ti,0.0
mp-1214504,Ce3Ti6Fe23,0.0
mp-1193048,Ce3TiAlS7,0.0
mp-1213815,Ce3TiSb5,0.0
mp-21412,Ce3Tl,0.0
mp-21319,Ce3TlC,0.0
mp-1183769,Ce3Tm,0.0
mp-1227021,Ce3UAl8,0.0
mp-1226924,Ce3UO8,0.0
mp-1213830,Ce3W(ClO2)3,0.0
mp-1226802,Ce3Y,0.0
mp-1227521,Ce3Y(InAu2)4,0.0
mp-984772,Ce3Zn,0.0
mp-862292,Ce3Zn11,0.0
mp-698212,Ce3Zn22,0.0
mp-1213800,Ce3ZrSb5,0.0
mp-1213853,Ce4(ErS2)11,0.0
mp-606703,Ce4(GeS4)3,0.0
mp-1197418,Ce4(HoS2)11,0.0
mp-680039,Ce4(LuS2)11,0.0
mp-680692,Ce4(SiS4)3,0.0
mp-1204968,Ce4(TmS2)11,0.0
mp-1199263,Ce4(YS2)11,0.0
mp-582245,Ce4Al23Ni6,0.0
mp-1227640,Ce4AlCo25,0.0
mp-21011,Ce4As3,0.0
mp-31017,Ce4B2N5,0.0
mp-1226947,Ce4Bi8Pd3,0.0
mp-574262,Ce4C2Br5,0.0
mp-569330,Ce4C4Br3,0.0
mp-1213878,Ce4CdIr,0.0
mp-1214047,Ce4CdNi,0.0
mp-1213866,Ce4CdPd,0.0
mp-1213872,Ce4CdPt,0.0
mp-1191201,Ce4CdRu,0.0
mp-542752,Ce4Co2Sn5,0.0
mp-1226941,Ce4CoSi6Au,0.0
mp-1193039,Ce4CrS7,0.0
mp-1226848,Ce4Cu3(SO)4,0.0
mp-1227972,Ce4Cu5Sb8,0.0
mp-1213958,Ce4Fe,0.0
mp-689668,Ce4FeSe6O,0.0
mp-30944,Ce4Ga5Br2,0.0
mp-1195104,Ce4GaSbS9,0.0
mp-1213824,Ce4Ge3,0.0
mp-1213848,Ce4Ge7,0.0
mp-29776,Ce4Ge9Rh13,0.0018000000000002454
mp-675328,Ce4GeS3,0.0
mp-1226890,Ce4H11,0.0
mp-1199723,Ce4In21Pd10,0.0
mp-580324,Ce4In8Ni7,0.0
mp-1214097,Ce4Mg,0.0
mp-1205465,Ce4Mg7Ge6,0.0
mp-1213984,Ce4MgRh,0.0
mp-866461,Ce4MgRu,0.0
mp-1227078,Ce4Mn3Sb8,0.0
mp-583771,Ce4MnSe6O,0.0
mp-1214244,Ce4Ni,0.0
mp-1227331,Ce4Ni3Bi8,0.0
mp-1226998,Ce4Ni3Pt,0.0
mp-1227577,Ce4Ni4Bi3Sb5,0.0
mp-1226997,Ce4Pu,0.0
mp-1213901,Ce4Re6O19,0.0
mp-570629,Ce4Ru3,0.0
mp-1191097,Ce4S3NCl3,0.0
mp-19976,Ce4S3O4,0.0
mp-1227009,Ce4S4Cl2O,0.0
mp-20680,Ce4Sb3,0.0
mp-1105809,Ce4Se3N2,0.0
mp-552177,Ce4Se3O4,0.0
mp-1206019,Ce4SiI5,0.0
mp-1190081,Ce4SiRh12,0.0
mp-1226765,Ce4Sm,0.0
mp-1226911,Ce4SmO10,0.0
mp-1202847,Ce4Sn25Pd12,0.0
mp-640776,Ce4Sn25Pt12,0.0
mp-641183,Ce4Te3N2,0.0
mp-753957,Ce4ThO8,0.0
mp-753456,Ce4ThO9,0.0
mp-1226869,Ce4UO10,0.0
mp-773102,Ce4YO9,0.0
mp-1226943,Ce4Zn3Sb8,0.0
mp-1227615,Ce4ZrCo25,0.0
mp-1226815,Ce4ZrO10,1.763
mp-670677,Ce5(In2Pt)2,0.0
mp-1192858,Ce5(MgGe)8,0.0
mp-571312,Ce5(SiN3)3,0.0
mp-1199090,Ce5(Sn5Rh2)2,0.0
mp-1106401,Ce5AgPb3,0.0
mp-675643,Ce5AgS8,0.0
mp-676143,Ce5AgSe8,0.0
mp-865967,Ce5Al2Ru3,0.0
mp-680054,Ce5B4C5,0.0
mp-1226853,Ce5BiSb4,0.0
mp-623670,Ce5C2Br9,0.0
mp-627409,Ce5C2Cl9,0.0
mp-542327,Ce5Co19,0.0
mp-1229080,Ce5Cu19P12,0.0
mp-542328,Ce5Ga3,0.0
mp-1227601,Ce5Ge2Pd,0.0
mp-21651,Ce5Ge2Ru,0.0
mp-1200696,Ce5Ge4,0.0
mp-1213986,Ce5GeSb2,0.0
mp-680536,Ce5Ir4,0.0
mp-1039435,Ce5Mg,0.0
mp-680586,Ce5Mg41,0.0
mp-616173,Ce5NiGe2,0.0
mp-640447,Ce5NiPb3,0.0
mp-1203369,Ce5P12Ru19,0.0
mp-510369,Ce5Pb3O,0.0
mp-680602,Ce5Rh4,0.0
mp-1226916,Ce5S8,0.0
mp-1226992,Ce5Sb4As,0.0
mp-1196829,Ce5Si4,0.0
mp-637308,Ce5Sn3,0.0
mp-1213873,Ce5Sn3Au,0.0
mp-1019595,Ce5Zr3O16,1.8295
mp-1228022,Ce6Al3Fe11,0.0
mp-570060,Ce6B2(CBr)3,0.0
mp-1190285,Ce6Cd4Pd13,0.0
mp-683922,Ce6Ge9(BO15)2,0.0
mp-645893,Ce6In14Pt11,0.0
mp-641689,Ce6In5Pd12,0.0
mp-1192664,Ce6Mg23As,0.0
mp-1192742,Ce6Mg23C,0.0
mp-1192839,Ce6Mg23Ge,0.0
mp-1192963,Ce6Mg23P,0.0
mp-1192592,Ce6Mg23Sb,0.0
mp-1192551,Ce6Mg23Si,0.0
mp-1192818,Ce6Mg23Sn,0.0
mp-1227432,Ce6MnSb15,0.0
mp-1214277,Ce6N8O33,0.02239999999999997
mp-1214373,Ce6Ni20As13,0.0
mp-1214139,Ce6Ni20P13,0.0
mp-1193687,Ce6Ni6P17,0.0
mp-504776,Ce6P17Pd6,0.0
mp-680421,Ce6S4BrN3,0.0
mp-680697,Ce6Si4S17,0.0
mp-1214252,Ce6SiNi4,0.0
mp-676287,Ce6Th4O19,0.0
mp-683992,Ce7(GePd2)2,0.0
mp-568922,Ce7C3I10,0.0
mp-2629,Ce7O12,0.0
mp-1182329,Ce7Pt3,0.0
mp-31164,Ce7Ru3,0.0
mp-1227542,Ce7Ti4(Se2O)6,0.0
mp-1229274,Ce8Ag6Ge8O,0.0
mp-1213829,Ce8AlPd24,0.0
mp-583042,Ce8C8Cl5,0.0
mp-705511,Ce8Fe8As8O7F,0.0
mp-1195670,Ce8GaPd24,0.0
mp-1213827,Ce8GePd24,0.0
mp-1214111,Ce8InPd24,0.0
mp-571125,Ce8Ni18P11,0.0
mp-1213855,Ce8Pd24Pb,0.0
mp-1202101,Ce8Re13B12,0.0
mp-29101,Ce8SbPd24,0.0
mp-1213840,Ce8SnPd24,0.0
mp-649704,Ce9(Ni13P6)2,0.0
mp-1197286,Ce9(SbO)5,0.0
mp-680283,Ce9B3C6Br5,0.0
mp-674320,Ce9DyO20,0.0
mp-675102,Ce9GdO20,0.0
mp-567514,Ce9Sb16Cl3,0.0
mp-677131,Ce9YO20,0.0
mp-11841,CeAg,0.0
mp-1071422,CeAg2,0.0
mp-862709,CeAg3,0.0
mp-560230,CeAg6(NO3)9,0.0
mp-985705,CeAgAs2,0.0
mp-865862,CeAgAu2,0.0
mp-11215,CeAgGe,0.0
mp-865885,CeAgHg2,0.0
mp-675111,CeAgP2,0.0
mp-13407,CeAgPb,0.0
mp-510280,CeAgSb2,0.0
mp-20439,CeAl,0.0
mp-1226666,CeAl(CuNi)2,0.0
mp-2088,CeAl2,0.0
mp-1226637,CeAl2Ag3,0.0
mp-1071272,CeAl2BRu2,0.0
mp-1226644,CeAl2Cu3,0.0
mp-1206482,CeAl2Ni,0.0
mp-1079160,CeAl2Pt,0.0
mp-567305,CeAl3,0.0
mp-1070063,CeAl3Au,0.0
mp-1069443,CeAl3Cu,0.0
mp-1226634,CeAl3Pd,0.0
mp-4785,CeAl3Pd2,0.0
mp-1226648,CeAl3Pt,0.0
mp-1025102,CeAl3Pt2,0.0
mp-2289,CeAl4,0.0
mp-13504,CeAl4Co,0.0
mp-12017,CeAl4Ge2Au,0.0
mp-30750,CeAl4Ni,0.0
mp-1213792,CeAl4Pd,0.0
mp-1078427,CeAl4Si2Ir,0.0
mp-1078224,CeAl4Si2Rh,0.0
mp-672344,CeAl5Pt3,0.0
mp-11031,CeAl7Au3,0.0
mp-676933,CeAl8O16,0.0
mp-865968,CeAlAg2,0.0
mp-1102423,CeAlAu,0.0
mp-571542,CeAlCo,0.0
mp-1226649,CeAlCo4,0.0
mp-1079868,CeAlCu,0.0
mp-1226887,CeAlCu4,0.0
mp-1079691,CeAlH2Ir,0.0
mp-1077038,CeAlIr,0.0
mp-11351,CeAlNi,0.0
mp-1226626,CeAlNi4,0.0
mp-1226604,CeAlO2,0.0
mp-21158,CeAlPd,0.0
mp-1106138,CeAlPd2,0.0
mp-19827,CeAlPt,0.0
mp-3344,CeAlRh,0.0
mp-604008,CeAlRu,0.0
mp-1206597,CeAlSi,0.0
mp-2748,CeAs,0.0
mp-1226657,CeAs2Au,0.0
mp-574159,CeAs2Pd3,0.0
mp-1183729,CeAs3,0.0
mp-1080105,CeAsRuO,0.0
mp-5908,CeAsS,0.0
mp-1018087,CeAu,0.0
mp-1077442,CeAu2,0.0
mp-865572,CeAu3,0.0
mp-1103758,CeAu6,0.0
mp-8667,CeB2C,0.0
mp-10964,CeB2Ir2C,0.0
mp-1226636,CeB2Ir2Rh,0.0
mp-1206294,CeB2Pd2C,0.0
mp-1024975,CeB2Pt2C,0.0
mp-6191,CeB2Rh2C,0.0
mp-5757,CeB2Rh3,0.0
mp-1226655,CeB2Ru2Rh,0.0
mp-5940,CeB2Ru3,0.0
mp-1974,CeB4,0.0
mp-1226711,CeB4(IrOs)2,0.0
mp-21343,CeB6,0.0
mp-1200378,CeB7IO15,0.438
mp-29595,CeBN2,0.0
mp-19948,CeBPd3,0.0
mp-10468,CeBPt2,0.0
mp-22435,CeBPt3,0.0
mp-20051,CeBPt4,0.0
mp-510376,CeBRh3,0.0
mp-457,CeBe13,0.0
mp-1226619,CeBeAl3,0.0
mp-23285,CeBi,0.0
mp-1227635,CeBi2(Rh2O5)3,0.0
mp-1078370,CeBi2Au,0.0
mp-1183850,CeBi3,0.0
mp-861888,CeBiAu2,0.0
mp-604453,CeBiPd,0.0
mp-1018162,CeBiPt,0.0
mp-610469,CeBiS2O,0.0
mp-754112,CeBrO,0.0
mp-22672,CeC,0.0
mp-2839,CeC2,0.0
mp-1191020,CeC8N4(Cl2O3)2,0.0
mp-1206355,CeCO,0.0
mp-11291,CeCd,0.0
mp-640089,CeCd11,0.0
mp-866189,CeCd2,0.0
mp-1206708,CeCd2Cu,0.0
mp-2863,CeCd3,0.0
mp-865552,CeCdAg2,0.0
mp-10316,CeCdAsO,0.0
mp-11082,CeCdAu,0.0
mp-1079017,CeCdCu,0.0
mp-866274,CeCdHg2,0.0
mp-1227074,CeCdIn,0.0
mp-12006,CeCdNi4,0.0
mp-1079977,CeCdPd,0.0
mp-1078450,CeCdPt,0.0
mp-582011,CeCl3,0.0
mp-22952,CeClO,0.0
mp-1112,CeCo2,0.0
mp-1025095,CeCo2B2C,0.0
mp-570872,CeCo3,0.0
mp-4454,CeCo3B2,0.0
mp-1226659,CeCo3Cu2,0.0
mp-21878,CeCo4B,0.0
mp-1226692,CeCo4Cu,0.0
mp-764,CeCo5,0.0
mp-1205715,CeCo5H4,0.0
mp-1203867,CeCo5P3,0.0
mp-1194086,CeCo9Ge4,0.0
mp-1193469,CeCo9Si4,0.0
mp-20753,CeCoC2,0.0
mp-1226624,CeCoCuSi2,0.0
mp-1079178,CeCoGe2,0.0
mp-1226751,CeCoGe2Ru,0.0
mp-21116,CeCoGe3,0.0
mp-644499,CeCoGeH,0.0
mp-1226669,CeCoRh,0.0
mp-1079392,CeCoSb2,0.0
mp-568089,CeCoSb3,0.0
mp-1018660,CeCoSi,0.0
mp-7095,CeCoSi2,0.0
mp-1226609,CeCoSi2Rh,0.0
mp-1070753,CeCoSi3,0.0
mp-6258,CeCr2Si2C,0.0
mp-1191927,CeCrB4,0.0
mp-20650,CeCrGe3,0.0
mp-780921,CeCrO3,0.0
mp-561628,CeCrS2O,0.0
mp-21871,CeCrS3,0.0
mp-1213967,CeCrSb3,0.0
mp-20170,CeCrSe3,0.0
mp-636198,CeCu,0.0
mp-1213794,CeCu2Si,0.0
mp-1226656,CeCu2SiGe,0.0
mp-640286,CeCu4Sn,0.0
mp-761,CeCu5,0.0
mp-1194241,CeCu5Ag,0.0
mp-637204,CeCu5Sn,0.0
mp-1196371,CeCu6(PO7)3,0.0
mp-1215076,CeCu9Sn4,0.0
mp-20766,CeCuGe,0.0
mp-1080708,CeCuGe2,0.0
mp-1096766,CeCuN2,0.0
mp-977389,CeCuO3,0.0
mp-1096897,CeCuPb,0.0
mp-1226665,CeCuPt4,0.0
mp-5766,CeCuS2,0.0
mp-635469,CeCuSO,0.0
mp-672238,CeCuSb2,0.0
mp-11791,CeCuSe2,0.0
mp-22740,CeCuSi,0.0
mp-1080057,CeCuSi2,0.0
mp-1226605,CeCuSi2Ni,0.0
mp-1226625,CeCuSi2Pd,0.0
mp-1226642,CeCuSi2Ru,0.0
mp-22683,CeCuSn,0.0
mp-1079385,CeCuTeO,0.0
mp-984779,CeDy3,0.0
mp-1226713,CeDy4S7,0.0
mp-1226639,CeDyFe4,0.0
mp-1183803,CeDyMg2,0.0
mp-20775,CeDyS3,0.0
mp-984702,CeDyZn2,0.0
mp-1226617,CeEr,0.0
mp-1183865,CeEr3,0.0
mp-1226714,CeEr4S7,0.0
mp-1183776,CeErIn2,0.0
mp-984355,CeErMg2,0.0
mp-1202288,CeErS3,0.0
mp-1184049,CeEu3,0.0
mp-1183853,CeEuAg2,0.0
mp-1226635,CeEuAl4,0.0
mp-1226734,CeEuB12,0.0
mp-1183861,CeEuCd2,0.0
mp-1183873,CeEuZn2,0.0
mp-1228034,CeFe(Ni2Ge)4,0.0
mp-204,CeFe2,0.0
mp-1105352,CeFe4(CuO4)3,0.0
mp-11317,CeFe5,0.0
mp-1193262,CeFe9Si4,0.0
mp-1079570,CeFeAsO,0.0
mp-1226668,CeFeCo,0.0
mp-1226680,CeFeCu,0.0
mp-20722,CeFeGe3,0.0
mp-1226721,CeFeNi4,0.0
mp-1079507,CeFeSb2,0.0
mp-20245,CeFeSi,0.0
mp-1025450,CeFeSi2,0.0
mp-1018276,CeGa,0.0
mp-2209,CeGa2,0.0
mp-1226676,CeGa2Cu3,0.0
mp-1025446,CeGa2Ni,0.0
mp-1227952,CeGa2Ni3,0.0