task_id,pretty_formula,band_gap
mp-769986,Mn2AlO4,0.21720000000000006
mp-769987,LiCoBO3,2.5816999999999997
mp-769990,Li2TiCrO4,0.0
mp-769998,Li2CrFeO4,1.9855999999999998
mp-770000,Li2CrCoO4,0.0
mp-770002,AlCrO4,0.0
mp-770004,Ni5(TeO6)2,0.20219999999999994
mp-770009,Li3Mn2P2(CO7)2,0.0
mp-770016,LiVBO4,1.428
mp-770019,LiMn3(NiO4)2,0.0
mp-770021,Li5Mn2P2(CO7)2,0.0
mp-770024,Li2Mn3NbO8,0.0
mp-770025,Na2MnBPO7,0.25329999999999997
mp-770028,LiVBO4,1.8254000000000001
mp-770029,LiMn2Fe3O8,0.0
mp-770031,Li4Cr3NiO8,0.0
mp-770032,Li2CrFeO4,1.9518999999999997
mp-770043,Li4Ti2Cr3Co3O16,0.0
mp-770044,K3FePCO7,3.743
mp-770047,Li5Mn2P2(CO7)2,0.0
mp-770048,K3VPCO7,2.3244999999999996
mp-770052,Li3Fe2P2(CO7)2,0.0
mp-773204,Li4Cr5Fe3O16,0.0
mp-773208,Li7Co5O12,0.0
mp-773210,NaFeAsCO7,0.09519999999999995
mp-773211,Li3FeSiCO7,2.5351999999999997
mp-773217,Li5Cu5(NiO6)2,0.0
mp-773221,Li5Cr2Co5O12,0.0
mp-773227,Li5Cr2Cu5O12,0.0
mp-773229,Mn3FeO8,0.0
mp-773237,Mn5CuO12,0.0
mp-773238,Mn(CoO2)4,0.0
mp-773255,Li2CrNiO4,0.0
mp-773256,Mn4FeO8,0.0
mp-773257,Mn4NiO8,0.0
mp-773259,Mn3Cr5O16,0.0
mp-773262,Li3NbV2O6,0.0
mp-773265,Li4TiCo3O8,0.9867000000000001
mp-773271,Co(CuO2)4,0.0
mp-773274,Li3Cr(NiO3)2,0.0
mp-773276,Li2Mn3O6,0.0
mp-773277,Co(CuO2)4,0.0
mp-773287,Li3V2CoO6,0.0
mp-773293,Li2MnCrO4,0.9948000000000001
mp-773294,Mn4CrO8,0.0
mp-773295,Li2TiCrO4,0.0
mp-773297,Li3Ti3CrO8,0.0
mp-773300,Mn5FeO12,0.0
mp-773302,Li3Ti2CrO6,0.0
mp-777488,Li3FeF6,3.9812000000000003
mp-777493,Li3Fe4(OF3)3,1.9361000000000002
mp-777494,VOF2,1.5960999999999999
mp-777495,Li2VP2O7,2.7579000000000002
mp-777499,MnOF,0.0
mp-777501,V2O3F,1.0937000000000001
mp-777505,Mn3(O2F)2,0.0
mp-777506,V3(O2F)2,0.0
mp-777514,Y2O3,2.8013999999999997
mp-777517,Ti3Cu2Ni(PO4)6,0.0
mp-777526,Fe10O19F,0.0
mp-777527,LiV6O7F5,1.0399000000000003
mp-777528,Li3VF6,2.4757000000000002
mp-777546,NaSnO,0.0
mp-777550,LiFeF4,3.6935000000000002
mp-777554,CrO,0.0
mp-777557,TiFe3Sn2(PO4)6,0.09609999999999985
mp-777584,Na7NbO6,2.7721999999999998
mp-777588,Li2FeF4,3.4779999999999998
mp-777602,V2O3F,0.0
mp-777604,Li2MnCo3O8,0.0
mp-777605,CoOF,0.0
mp-777625,TiV4CuO12,0.0
mp-850422,Fe3(O2F)2,0.0
mp-850427,LiMnPH2O5,3.0371000000000006
mp-850444,Na8NiO6,0.0
mp-850447,V2O3F,0.0
mp-850470,Mn(PO3)5,0.0
mp-850484,LiVPO4,2.5749999999999997
mp-850495,Li2Si4(NiO4)3,0.0
mp-850518,Mn4O7F,0.0
mp-850556,La3Nb8O24,0.0
mp-850742,LiV3OF11,0.0
mp-850747,LiFe2P2HO8,3.2550999999999997
mp-850762,Fe5O7F3,0.0
mp-850767,Mn4O7F,0.0
mp-850773,Li2Mn3(BO3)3,0.0
mp-850864,Ho2TiO5,3.1511999999999993
mp-850877,Mn8O13F3,0.0
mp-850882,Li2Cr(PO3)5,1.6743000000000001
mp-850889,Li3CrP2O9,0.0
mp-850898,LiMn2(BO3)2,0.022599999999999953
mp-625179,Cu(HO)2,0.0
mp-625184,Sr(HO)2,3.973
mp-628593,Yb5(InSb3)2,0.0
mp-628599,YbBi2IO4,0.0
mp-628606,Rb2PdI6,0.0
mp-628614,Ce2Si7Rh15,0.0
mp-628616,Na3Li3N2,0.0
mp-628705,YbFeGe,0.0
mp-629443,Li2EuGeS4,0.20210000000000017
mp-630372,Tb4Ga6FeGe6,0.0
mp-630641,Sr2FeClO3,1.1226000000000003
mp-630714,Mg(FeO2)2,0.9805999999999999
mp-630862,Yb2Pt2Pb,0.0
mp-630866,Fe3Pb4ClO8,1.0373999999999999
mp-630883,Ni6Mo2P3,0.0
mp-630976,In3Ir,0.0
mp-631194,La3Ga4Cl,0.0
mp-635456,EuCuBi,0.0
mp-635469,CeCuSO,0.0
mp-636095,Zr3Cd2,0.0
mp-636316,EuIn2,0.0
mp-636476,SrCu3(RuO3)4,0.0
mp-636565,YbIn5Ir,0.0
mp-636598,Rb2ZnBr4,3.6771000000000003
mp-639690,PuS2,0.0
mp-640051,Pu2Ni2Sn,0.0
mp-640108,Ce2InNi2,0.0
mp-640345,Cs2MnFe(CN)6,0.0
mp-676210,LiTiCl3,0.0
mp-676305,Mg4Sb2O9,2.1611000000000002
mp-676360,NaNdS2,2.0199999999999996
mp-676498,Gd2PbS4,1.2363999999999997
mp-680168,K2Re3C2Se5N2,1.2751000000000001
mp-680180,K3Co(CN)6,4.134399999999999
mp-680254,Yb7Cl15,0.0
mp-680417,CeSb(SBr)2,0.0
mp-680424,AlPO4,3.5429999999999997
mp-680477,Al2RhC4Cl7O4,2.0206999999999997
mp-680555,TlGaSe2,1.2542999999999997
mp-680610,Pr4In21Pd10,0.0
mp-680671,Mg4Zn7,0.0
mp-680674,Cs3Bi2Br9,2.6140999999999996
mp-680690,LaCu3(RuO3)4,0.0
mp-680760,In4Br7,2.2916999999999996
mp-720379,K3NaP4(H2O7)2,4.540500000000001
mp-733717,Tl3SnSe4,0.0
mp-733817,Mg16Si8HO32,0.0
mp-733840,GaH12N3(OF2)3,5.216200000000001
mp-733862,KCaP3(HO2)6,5.230499999999999
mp-733877,CaB3H13O12,5.219600000000001
mp-735491,CaMg2H24(ClO2)6,0.20789999999999997
mp-735520,Ca2MnFeSi4(HO3)5,0.9706000000000001
mp-735596,K4Mo3H4O17,2.4421999999999997
mp-735603,CaH16C4N8(ClO2)2,1.0128000000000001
mp-736259,HgH4C4(NCl2)2,2.4703999999999997
mp-758243,TiNb2O7,1.3475000000000001
mp-758329,YbCO3,4.696
mp-758498,Li2CuSiO4,0.0
mp-758558,SbNO,0.0
mp-758594,Li(Fe3P2)2,0.0
mp-758673,LiNb2O4,0.0
mp-758720,Li5CuF6,1.5709999999999997
mp-758835,Na(Cu3O4)2,0.0
mp-759116,YbAlO3,0.0
mp-759367,YbNdO2,0.0
mp-759684,Na3Bi(P2O7)2,0.0
mp-759696,Li2Bi3P9O28,3.9590999999999994
mp-759711,LiCuCO3,1.3639999999999999
mp-759759,NaGa3P2(HO3)4,4.209099999999999
mp-759835,CeMgAu,0.0
mp-759838,NaSn2(PO4)3,3.2885999999999997
mp-759897,Cu2OF2,0.0
mp-760075,Ti19O30,0.0
mp-760134,NbSb3O8,1.8178999999999998
mp-760217,NaTi4O8,0.0
mp-760376,KTiO3,0.0
mp-760377,Li2Nb(PO4)2,0.0
mp-760382,ThUO4,0.0
mp-760385,In2Ag,0.0
mp-760410,BePO4,0.0
mp-760414,Ti3PdO,0.0
mp-760439,TaTiO4,0.0
mp-760482,F2,2.9875
mp-760507,AsRhO4,0.0
mp-760536,CuCO3,0.0
mp-763356,Fe4O7F,0.0
mp-763357,LiP2WO8,2.4939999999999998
mp-763368,LiV3P5O19,1.0250000000000001
mp-763370,LiP2WO8,3.3890000000000002
mp-763428,Li3Fe3CoO8,0.0
mp-763429,LiFe(CoO3)2,0.33989999999999987
mp-763482,VPO5,2.2702999999999998
mp-763497,LiV(PO3)3,2.6039999999999996
mp-763674,K8Li3(FeO4)4,0.058899999999999994
mp-763687,Li6MnO6,0.0
mp-763713,Cs(WO3)3,0.0
mp-763722,Li2FeP4(H4O5)4,3.9450000000000003
mp-763768,K8Li9Mn4O16,0.43579999999999997
mp-763783,Li4MnF7,0.0
mp-763815,Co2H21I7(N2O)3,0.06940000000000002
mp-763858,Ta2MnO6,1.9696999999999996
mp-763860,Mn2OF3,0.0
mp-765985,Li5Ti12O24,0.0
mp-766006,In15SnO24,0.0
mp-766023,Li2Cu2Si4O11,0.42120000000000024
mp-766154,VF5,3.3141999999999996
mp-766155,LiMnPO4,3.6113999999999997
mp-766862,Li2VF6,1.9304000000000001
mp-766906,LiVF4,2.1007000000000002
mp-766953,LiVF4,0.0
mp-770056,Mn4CoO8,0.0
mp-770062,NaVSiO4,1.9758999999999998
mp-770065,Gd2TiO5,3.1628999999999996
mp-770082,CoPbO3,0.0
mp-770084,Li2AlNiO4,1.8149999999999997
mp-770086,FeNiO3,0.0
mp-770098,Ga2NiO4,0.0
mp-770101,Li5MnO5,0.0
mp-770102,Li3Al2VO6,1.9795999999999996
mp-770103,LiAlVO4,1.741
mp-770104,LiMn4O8,0.0
mp-770107,Fe2CuO4,0.0
mp-770114,Mn2PO5,0.0
mp-770150,TlCoO3,0.0
mp-770175,Li2Mn3FeO8,0.0
mp-770183,Li2AlVO4,2.1691999999999996
mp-770184,Li3Co(CuO2)4,0.0
mp-770347,TbNiO3,0.0
mp-770352,Eu2NiO4,0.0
mp-770389,V2(SO4)3,0.0
mp-770485,CrGaO4,0.0
mp-770489,Li6Cr3Fe(PO4)6,2.3775999999999997
mp-770494,LaMgI5,2.5768999999999997
mp-770543,Mn2O3,0.0
mp-770593,LiCo2(SO4)3,0.41290000000000004
mp-770595,Li2CrO3,0.0
mp-770606,Eu2CoO4,0.0
mp-770618,MgMnO3,1.9300000000000002
mp-770643,GeWO4,3.9396999999999998
mp-773307,Co4NiO8,0.0
mp-773308,Li2MnCrO4,0.0
mp-773309,Li2CrCuO4,0.0
mp-773313,Li2FeCuO4,0.0
mp-773322,AlCr2O4,0.0
mp-773332,In2Co2O7,0.0
mp-773340,Li2TiMnO4,0.39010000000000034
mp-773344,Li2CrCuO4,0.0
mp-773355,Li3V(FeO3)2,0.0
mp-773369,Li3MnO4,0.0
mp-773430,NbV2O7,0.0
mp-773443,V3O7,0.0
mp-773450,TiCrO4,0.0
mp-773460,Li2FeCuO4,0.0
mp-773462,MnTeO4,0.0
mp-773466,NaCu3O4,0.0
mp-773500,LiMnCuO4,0.0
mp-773534,TiFeO4,0.0
mp-773543,Mn2O3F,0.0
mp-773572,LiCo6O7,0.0
mp-773628,NaV2O4,0.0
mp-773755,Na3Li3Mn2P2(CO7)2,3.5650999999999997
mp-773773,Na5LiMn2P2(CO7)2,3.3085999999999998
mp-773811,NaLi2FePCO7,3.8463000000000003
mp-773817,Sn2N2O,0.006999999999999673
mp-773927,Li4Co2(PO4)3,0.0
mp-773941,Na5LiMn2P2(CO7)2,3.3173999999999997
mp-773944,Li4Mn2(PO4)3,0.25639999999999996
mp-773981,K2Li2NiO4,0.012699999999999989
mp-774003,VRhO4,0.11759999999999948
mp-774096,Li2FeO2,1.7893000000000001
mp-774483,Zr2(PO4)3,0.0
mp-774520,TiAlO3,0.0
mp-777670,Li4V3Cr3(SnO8)2,1.017
mp-777702,LiMnF3,3.7721999999999998
mp-777760,TbCeO4,0.0
mp-777778,Li2VO2F,1.7347000000000001
mp-777894,LiVF3,2.5427999999999997
mp-777896,Li2V3NiO8,1.6475999999999997
mp-778554,Li2MnF4,3.8539000000000003
mp-778568,V2O3F,1.1503999999999999
mp-778569,Mn3OF5,0.0
mp-778584,LiMn2(CoO4)2,0.20630000000000015
mp-778717,MgFeO3,0.02660000000000018
mp-778781,Li2NiO2,1.938
mp-778832,Li3Mn4(BO3)4,0.47809999999999997
mp-778860,LiNi2(SO4)3,0.0
mp-778879,LiV2OF5,1.0131000000000001
mp-779000,Rb4SbO4,0.0
mp-779062,Li3V4(OF3)3,1.1482999999999999
mp-779166,LiCo3NiO8,0.0
mp-779205,Li3V4(OF3)3,0.9322999999999997
mp-779220,Li2Cr3P9O28,2.9882999999999997
mp-850905,Li4Cr3(FeO4)3,0.0
mp-850910,Na6V2As(CO4)4,0.0
mp-850932,Mn3(OF2)2,0.0
mp-850933,Fe4O7F,0.0
mp-850970,Co2O3F,0.0
mp-850984,MnOF,0.0
mp-850987,LiCo2O2F3,0.0
mp-851006,Na6V2B4PO16,0.0
mp-851007,Li6Co2C4SO16,0.0
mp-851008,Na6Co2B4SO16,0.14069999999999983
mp-851022,Na2VO3,2.3606999999999996
mp-851026,Li3CrNi3O8,0.0
mp-853153,Li5Co2O2F5,0.0
mp-853206,Li3(CoO2)4,0.0
mp-853231,LiFeOF2,1.559
mp-862605,Rb4Zr6CCl18,1.2651999999999999
mp-863404,Li2Cu2F7,0.0
mp-866311,Bi3BrO4,0.9142999999999999
mp-866668,Rb2SbBr6,0.0
mp-1008823,OsN2,0.0
mp-1017529,VCo3,0.0
mp-1017530,VH,0.0
mp-1017532,VN,0.0
mp-1017533,YN,0.21440000000000037
mp-1017539,ZnO,0.44799999999999995
mp-1017542,ZrOs3,0.0
mp-1017543,ZrPd3,0.0
mp-1017544,ZrRu3,0.0
mp-1017546,ZrN,0.0
mp-1017549,Ca(BH)2,0.018600000000000172
mp-1017550,Be3N2,4.2459999999999996
mp-1017553,CdCo3N,0.0
mp-1017554,CdNi3N,0.0
mp-1017556,CuNi3N,0.0
mp-1017557,Dy3AlN,0.0
mp-1017558,Er3AlN,0.0
mp-1017563,GaPt3C,0.0
mp-1017627,Lu3AlN,0.0
mp-1017629,MgNiH3,0.0
mp-1025156,NpB6,0.0
mp-1025192,Ta4C3,0.0
mp-292,V3As,0.0
mp-2929,BaTbO3,0.0
mp-2930,Mn3ZnC,0.0
mp-2935,Li2GeAu,0.0
mp-3088,LaBRh3,0.0
mp-3158,Li2SbPt,0.0
mp-3183,DyBRh3,0.0
mp-371,La3Tl,0.0
mp-3710,HoBRh3,0.0
mp-3717,LuBRh3,0.0
mp-372,VPt3,0.0
mp-3726,Li2GaPt,0.0
mp-376,PrSn3,0.0
mp-3769,ErBRh3,0.0
mp-379,AgSe,0.0
mp-381,SiRu,0.0
mp-388,ErPb3,0.0
mp-506,MgPd,0.0
mp-5177,LuSnAu,0.0
mp-5200,PrBRh3,0.0
mp-526,CaTl3,0.0
mp-527,BaCd,0.0
mp-5318,MnCoSb,0.0
mp-5549,MgSnAu,0.0
mp-559,YPd3,0.0
mp-5676,MnSbPt,0.0
mp-572,SmCd,0.0
mp-580,PuB2,0.0
mp-5893,CaSiO3,3.4515000000000002
mp-592,TiRu,0.0
mp-5944,MnSbAu,0.0
mp-600561,LiRh,0.0
mp-601223,BN,0.0
mp-601820,Fe3Co,0.0
mp-607540,O2,0.0
mp-614895,Pu3In,0.0
mp-615,YMg,0.0
mp-620271,GdBiPt,0.0
mp-631324,HfMnTl,0.0
mp-631449,LiTaBe,0.0
mp-631450,BeGe2Te,0.0
mp-631458,CaReBi,0.0
mp-631464,KBePt,0.0
mp-631468,SrScBe,0.0
mp-631471,YScBe,0.0
mp-631479,CaHfBe,0.0
mp-631564,MgBe2B,0.0
mp-632172,H2,9.3264
mp-632311,Ta2H,0.0
mp-632329,C,0.5246000000000004
mp-640859,DyMn4(CuO4)3,0.0
mp-641526,Fe13Co3,0.0
mp-641564,U4Ga12Pd,0.0
mp-641621,U4Ga12Co,0.0
mp-641804,Yb11(Ce2Se11)2,0.0
mp-642779,Y2V2O7,0.0
mp-642783,Lu2V2O7,0.0
mp-642807,TbH2Br,1.6981999999999995
mp-643004,SrMg2FeH8,1.7242999999999997
mp-643203,Cu6PbSe2Cl5O8,0.0
mp-643246,YbMgNiH4,1.9047999999999998
mp-643293,SrMgNiH4,1.8123999999999998
mp-649754,Os3C9Se2O9,2.3869000000000002
mp-649878,Sn(S4I)4,0.9752000000000001
mp-651231,Te2Ru4(CO)11,1.7386000000000001
mp-651707,SiO2,5.696
mp-683891,MnSb6(Pb2S7)2,0.44700000000000006
mp-683919,C,1.1046999999999998
mp-683957,Nd4CuTe5(ClO5)3,1.4889999999999999
mp-683984,Al(SeCl)4,1.1038000000000001
mp-684002,LaYbS3,0.0
mp-684096,Bi(PO3)4,0.0
mp-684493,LiSn2P3O10,3.6428000000000003
mp-684621,Cu13I15,0.0
mp-685370,Y2Ti2O7,2.7268999999999997
mp-685862,Tm10Ti6O27,1.9486999999999997
mp-686077,Er18Ti14O55,2.3688000000000002
mp-686175,Si(Bi3O5)5,0.0
mp-686467,Sr14La6Mg3Ti17O60,1.8642999999999996
mp-686476,Al6Bi24Cl23,0.47119999999999995
mp-686543,NaSm9Si6(SO12)2,3.066
mp-686572,NaPr9Si6(SO12)2,3.1214999999999997
mp-686653,KMg4Al9(SiO4)9,3.9501999999999997
mp-686677,Rb2PH3SeO8,3.9400000000000004
mp-736545,HgH2C6(NCl2)2,0.0
mp-740696,TeH18(Br3O4)2,1.9244999999999999
mp-740722,Na3GeH11O9,3.8724000000000003
mp-743588,Mn3H24(O3F2)4,0.9821000000000001
mp-743592,Mg11AlFeSi11O36,2.7398999999999996
mp-743638,Li6Ti8Ni(PO5)8,2.9795999999999996
mp-743660,FeHO2,1.8956999999999997
mp-746662,NiH44C12(N5O8)2,3.146
mp-746817,NaV2P2(H4O7)2,0.0
mp-752438,Tl3(SbO3)8,0.0
mp-752452,Mg3Te4O11,2.7500999999999998
mp-752474,NbOF2,0.0
mp-752483,LiBiF5,0.0
mp-752606,Li2CuSiO4,0.0
mp-752643,NaTi2O4,0.0
mp-760837,Rb3Nb20O34,0.0
mp-761035,AgRuO4,0.0
mp-761087,NaTiO2,0.0
mp-761288,MnBO3,0.0
mp-761293,ZrCoO3,0.0
mp-761330,Rb(WO3)2,0.0
mp-761344,Li2VP2O7,2.5888999999999998
mp-761355,Li5VP3O11,3.0128999999999997
mp-761361,VSnO4,1.6367000000000003
mp-761378,Li5Mn2Fe3(PO4)6,2.1700999999999997
mp-761415,CuNi3O4,0.0
mp-761944,Li2FeCo3O8,0.20150000000000023
mp-761952,Li5Sb(P2O7)2,4.290500000000001
mp-761955,Li6TiFe3(PO4)6,1.3799000000000001
mp-763897,Li6CoOF6,0.0
mp-763944,Li5CoOF5,0.06909999999999972
mp-764021,NaMn2O4,0.0
mp-764045,Li3Mn(PO4)2,0.9067999999999999
mp-764050,Li3CoOF3,0.10860000000000003
mp-764163,Li3FeO4,0.0
mp-764174,Na2V2(PO4)3,0.9548999999999999
mp-767107,Li2MnO2F,0.0
mp-767265,V(Bi5O8)5,1.8281999999999998
mp-767328,Li5Fe5Si7O24,2.3729999999999998
mp-767352,Mn5O5F,0.0
mp-767384,Ba2LiTi11O24,0.0
mp-767448,Li4ScFe3(SiO3)8,2.7685999999999997
mp-767459,LiV3Fe2CuO12,0.646
mp-767525,Li6SbS2,0.0
mp-770660,Li12CrGa11O24,1.3460999999999999
mp-770696,Mn7(PO4)6,0.0
mp-770860,Li4Mn2Fe3P6WO24,2.1268000000000002
mp-770908,CoO2,0.0
mp-770909,CrCo3O8,0.37539999999999996
mp-770943,Li4TiNi5(PO4)6,2.3245999999999998
mp-770984,Li3MnV(PO4)3,0.0014000000000000679
mp-771365,Li24Ti5Cr7O36,1.1757999999999997
mp-771384,Lu2Co2O7,0.0
mp-774873,NbS2,0.0
mp-774994,Li5Fe8(BO3)8,1.6197000000000001
mp-775040,Li2MnSnO4,0.0
mp-775052,Li2CoCuO4,0.0
mp-775103,V4(OF3)3,1.4002000000000001
mp-775105,Li2MnFeO4,0.0
mp-775184,Sc2(PO4)3,0.0
mp-775207,Li4CrP6(H4O11)2,2.7359999999999998
mp-775236,LiMnO2,1.1503999999999999
mp-775238,LiFe2(BO3)2,1.4749999999999999
mp-775241,Li2MnCuO4,0.0
mp-779262,LiFePCO7,0.0
mp-779318,LiCr2P3O13,1.0714000000000001
mp-779344,Mn12O7F17,0.09499999999999997
mp-779366,LiCr(PO3)4,2.6060999999999996
mp-779373,Li8Mn3Fe5(BO3)8,3.101
mp-779378,Na4NiO4,0.0
mp-779403,Li4Mn3Fe(BO3)4,2.9966999999999997
mp-779435,Ga3NO3,0.0009000000000001229
mp-779703,Na4Sn5O12,1.4095999999999997
mp-779805,Li8Mn3Fe5(BO3)8,0.0
mp-779832,Li8Mn5Fe3(BO3)8,3.0374999999999996
mp-779864,Hf2N2O,2.0079000000000002
mp-779872,Li2V2P7HO24,1.4868000000000001
mp-779967,Dy2Mn2O7,0.9041000000000001
mp-779973,Hf2N2O,2.0806999999999993
mp-779980,Hf2N2O,2.0281000000000002
mp-779985,Li3FeO4,0.0
mp-849065,VS,0.0
mp-8557,BaPaO3,0.0
mp-8558,BaNpO3,0.0
mp-8566,Ag,0.0
mp-8578,Sc3InC,0.0
mp-862832,PaTlO3,2.6418999999999997
mp-867722,PrNdO2,0.0
mp-867727,Li5(BiO3)4,0.0
mp-867744,LiTi3O4,0.0
mp-868138,Li4Co3NiO8,0.0
mp-868627,CoF3,0.0
mp-868647,Li2VFeO4,0.0
mp-972822,SiBO3,0.0
mp-972827,SiBiO3,0.0
mp-972839,SiBO3,0.0
mp-972845,SiMo,0.0
mp-974754,NdPa3,0.0
mp-974779,NdTh3,0.0
mp-974834,EuNi3,0.0
mp-974842,KPtO3,0.0
mp-974865,NdY3,0.0
mp-974920,Na,0.0
mp-975134,KRhO3,0.0
mp-975159,RbZnO3,0.0
mp-975173,RbYO3,0.0
mp-975179,RbTlO3,0.0
mp-975190,RbTeO3,0.0
mp-975200,RbSrO3,0.0
mp-975207,RbSmO3,0.0
mp-975208,RbRuO3,0.0
mp-975216,RbReO3,0.0
mp-976847,Ni3Sb,0.0
mp-976848,NiRuO3,0.0
mp-976856,NaMg3,0.0
mp-976872,NaNi3,0.0
mp-976903,NaNd3,0.0
mp-976923,NaReO3,0.0
mp-985285,CoHg3,0.0
mp-985292,AgBO3,0.0
mp-985296,Ag3Pd,0.0
mp-985297,Ag3Rh,0.0
mp-985300,AcEr3,0.0
mp-985443,Ag3Hg,0.0
mp-985545,CoTeO3,0.0
mp-985578,AlFe,0.0
mp-985579,AlFe2,0.0
mp-985586,Na3BrO,1.8795000000000002
mp-985588,FeCl,0.0
mp-986,CeZn,0.0
mp-987,ZnCu,0.0
mvc-13598,YBiO3,0.0
mvc-14553,FeN,0.0
mvc-14600,AlSbO3,0.0
mvc-14645,YWO3,0.0
mp-1009483,NiN,0.0
mp-10167,Na3SbS4,0.0
mp-1018047,LaSn,0.0
mp-1018150,NbTe2,0.0
mp-1018948,Re2N,0.0
mp-1025065,LaMn2Ni3,0.0
mp-1030649,Li6RuN4,0.0
mp-1078924,Ce(NiSb)2,0.0
mp-1079141,Pr(GeIr)2,0.0
mp-1079224,V3AsN,0.0
mp-1094443,Y3Mg,0.0
mp-1094571,MgSb,0.0
mp-1095028,Zn3CrSe4,0.0
mp-1095224,PtO2,0.0
mp-1099081,CeMg14Ni,0.0
mp-1099102,CeMg14Co,0.0
mp-1099258,HfMg3O4,0.0
mp-1099270,Mg6ZnFe,0.0
mp-1099281,Mg6FeMo,0.0
mp-1099316,SrLaMg6,0.0
mp-1099786,Ca2Co2O5,0.0
mp-1866,KO2,0.0
mp-20432,Fe2Ge,0.0
mp-21090,MnNiGe,0.0
mp-21674,Pu5Ir4,0.0
mp-2251,Li3N,0.9840000000000001
mp-22703,Ni8Ge2B3,0.0
mp-2947,SmB2Rh3,0.0
mp-30067,Te3Pd10,0.047099999999999476
mp-3048,U2SeN2,0.0
mp-30493,ZnCdPt2,0.0
mp-30585,HoCu5,0.0
mp-377,LuRh,0.0
mp-504425,Nb3As,0.0
mp-504776,Ce6P17Pd6,0.0
mp-504781,NpI3,0.00039999999999995595
mp-504884,Cu3AsS3,0.0
mp-540851,Ti3Mn3O,0.0
mp-547792,KSbO3,2.6656999999999997
mp-5678,ErB2Rh3,0.0
mp-571044,CeSi2Ir3,0.0
mp-5739,U2SN2,0.0
mp-5820,Ce(CoP)2,0.0
mp-600089,CsPbBr3,2.4844999999999997
mp-6074,KRb2TiF6,0.0
mp-6092,TbNi2B2C,0.0
mp-6098,ErNi2B2C,0.0
mp-6102,NdNi2B2C,0.0
mp-610706,Cs2CoF6,1.8373000000000002
mp-6135,Ba2PrIrO6,0.0
mp-614964,Ba2PrCu3O8,0.0
mp-617230,MnF3,0.0
mp-621624,Tl7Sb2,0.0
mp-622190,Er2Mn3Si5,0.0
mp-624909,LaNb2CuBrO7,0.0
mp-6265,Ba2TbSbO6,3.5071999999999997
mp-626864,U(HO2)2,1.6722999999999995
mp-631496,Be2ReCl,0.0
mp-631509,ZrBeCd,0.0
mp-631510,HfBe2Bi,0.0
mp-631517,BaBeGa,0.0
mp-631537,BeReB,0.0
mp-631541,BeGeB,0.0
mp-632491,Li(NiO2)2,0.0
mp-635,ScRh3,0.0
mp-638586,Te3Pd13,0.0
mp-640158,Hf6Fe16Si7,0.0
mp-640818,Mo9O26,0.41220000000000034
mp-641754,Ca3SiO5,3.9850999999999996
mp-642273,U6Fe16Si7C,0.0
mp-647590,As5Pb3S10,0.13739999999999997
mp-648264,Os6C17S2O17,1.8011000000000001
mp-648988,NaLiCO3,0.0
mp-650280,Cs2As8S13,1.5193999999999999
mp-651121,Cs3HgI5,2.1471999999999998
mp-651154,Te4As2S5(OF6)2,0.0
mp-651347,K3Mo3Se14,0.9008000000000003
mp-651706,Cu6AgBi12PbS22,0.0
mp-651710,Ce20Ti11(S22O3)2,0.0
mp-651882,Yb(PO3)3,0.0
mp-652791,Re2SnC10(ClO5)2,0.38539999999999996
mp-654374,Ba2YTlCu2O7,0.0
mp-662643,P2CN3Cl5,3.9850999999999996
mp-667356,PRuC4(OF)3,0.0
mp-667387,Hg8Br3O4,0.0
mp-667418,As5Pb3S10,0.0
mp-669370,Ta5AuS,0.0
mp-669648,Ho6Mn23,0.0
mp-669688,U3Ga5,0.0
mp-672298,Eu(MnGe)2,0.0
mp-672345,Cu4W(SCl)4,0.0
mp-672681,Nb8Zn4C3,0.0
mp-676310,Ni2SbTe,0.0
mp-676990,Ba7(Al3Te8)2,0.0
mp-677563,ZnCuHg4As7S12,0.0
mp-680314,Rb14Si6Ge4O17,0.0
mp-683970,SiO2,5.359500000000001
mp-684020,Ce12C6I17,0.0
mp-684193,Sm11Br24,0.0
mp-684467,Rb2EuGa(SiO3)4,0.0
mp-684594,Ce16O27,0.0
mp-684686,Yb43Se45,0.0
mp-684691,Tm23Se32,0.0
mp-684749,Zr3S4,0.0
mp-684800,Rh9Se20,0.0
mp-684876,Te40Rh31,0.0
mp-684881,Mn27Sb26,0.0
mp-684997,Ni23Te42,0.0
mp-685088,Sc12I25,0.0
mp-685129,Co17Se20,0.0
mp-685184,SiO2,0.0
mp-685196,Tl2Ag16Te11,0.0
mp-685209,Sc39N34,0.0
mp-685224,Sc22Fe7S40,0.0
mp-685259,Y16Ti16O35,0.0
mp-685317,Ca5Cu19As10,0.0
mp-685340,Cu4Sn15S32,0.0
mp-685363,Cd18Sn19O56,0.0
mp-685371,Ge9(Sb5Te12)2,0.0
mp-685413,LiNbO3,0.0
mp-685509,Ba25(Bi5O18)3,0.0
mp-685511,Ti14O7F60,0.0
mp-685512,Ag15Bi7I40,0.0
mp-6944,LiTiO2,0.0
mp-696572,TiP,0.0
mp-6977,Be3N2,3.3283999999999994
mp-706342,Na2Ca17V2(PO4)14,1.9592999999999998
mp-707411,Zn3Fe15Cu39(Ge3S32)2,0.0
mp-709886,CuH5Pb4SO11,0.43710000000000004
mp-711343,H2RuC8S3N(ClO)3,0.0
mp-7127,Ba2YbTaO6,0.0
mp-7132,DySe,0.0
mp-7186,NdAl3Ni2,0.0
mp-720100,NaH18C9I(NO)3,0.16620000000000001
mp-720204,NaCa4Ti4Nb(SiO5)5,2.9213999999999998
mp-720519,KCd2H8C10N15O4,0.014900000000000135
mp-722623,Li66Be24H35,0.0
mp-746670,CoH22C3(N3O4)2,3.1475999999999997
mp-754010,ZnCu2O3,0.0
mp-7541,SnP3,0.0
mp-754126,CuAuO2,0.0
mp-754567,NaCdO2,0.0
mp-755431,PrNdO2,0.0
mp-755585,LiAgO2,0.0
mp-755647,CaPt3O4,0.0
mp-755664,Li2(TaS2)3,0.0
mp-755759,ZrO2,3.2123999999999997
mp-755789,Na2Be2O3,3.0523000000000002
mp-756374,SrPt3O4,0.0
mp-756428,LaTh4O10,0.0
mp-756660,Li4Ti3NbO8,0.0
mp-756948,Li4Cu3SbO8,0.0
mp-761128,BaNb5O8,0.0
mp-761554,Co2NiO6,0.0
mp-761579,FeCo3O8,0.0
mp-762949,Li14Cr9(P2O7)8,2.604
mp-762979,Li5V3P8O29,1.0917000000000001
mp-763257,La16Mn15O48,0.0
mp-763305,Li8FeO6,0.0
mp-763453,Ca3V10O25,0.9242000000000001
mp-763655,LiMn3O6,0.33610000000000007
mp-763782,Li2Zr7Fe(PO4)12,0.0
mp-763859,Li8MnCo7(PO4)12,0.0
mp-763866,Li6V3P8O29,1.3717000000000001
mp-763973,V4O7F5,0.9117999999999999
mp-764032,Li3V3P8O29,1.2409000000000001
mp-764119,Li3V3P8O29,0.9324999999999999
mp-764244,Li9V3P8O29,1.6202999999999999
mp-764263,Li3V3P8O29,1.0030000000000001
mp-765331,LiMn2O3F,0.0
mp-765495,Li4CrFe3O8,1.7114000000000003
mp-765821,VCo3O8,0.0
mp-768291,Hg(SbO3)2,0.0
mp-769849,CoO2,0.0
mp-769856,Li4Fe3NiO8,0.0
mp-769871,Li2CrFe3O8,0.0
mp-769907,Li4NbNi3O8,0.0
mp-769961,Li4Ni3SbO8,0.0
mp-770200,Li2Cr3SnO8,0.0
mp-770564,Eu3WO6,0.0
mp-770957,Be(CoO2)2,0.0