task_id,pretty_formula,band_gap
mp-8042,ZrGeO4,3.7395000000000005
mp-8044,V2PC,0.0
mp-8045,V5P3N,0.0
mp-8048,NdNi4B,0.0
mp-8053,YCo,0.0
mp-8058,YAsO4,3.6597999999999997
mp-765047,Li(CoO2)4,0.0
mp-69,Sm,0.0
mp-775962,Na4V2O5,0.38260000000000005
mp-13449,YbGa2,0.0
mp-2468,ErHg,0.0
mp-1147674,Li(CuN)3,0.0
mp-1209766,NiAgF3,0.0
mp-7025,RbTeAu,0.0
mp-799,V3S4,0.0
mp-7030,LaSiNi,0.0
mp-7032,HfMoP,0.0
mp-8018,K2RhF6,0.0
mp-8033,PuF3,0.05349999999999966
mp-687205,TcPbO3,0.0
mp-689533,La4FeSe6O,0.0
mp-8073,AsPd2,0.0
mp-689668,Ce4FeSe6O,0.0
mp-768523,La3Pt3O11,1.7142999999999997
mp-8079,B5W2,0.0
mp-809,ThCo5,0.0
mp-8090,Cu2P2O7,0.0
mp-8093,Ba2Cd,0.0
mp-8094,Ba2Hg,0.0
mp-8096,ZrCuF6,0.0
mp-775984,TiFe3Ni2(PO4)6,0.0
mp-1608,ZrHg3,0.0
mp-11536,NpRh3,0.0
mp-510098,EuAu5,0.0
mp-865329,Lu2MgTc,0.0
mp-866004,Er2InAg,0.0
mp-865067,Li2EuGe,0.0
mp-34910,Nd2Sn2O7,0.0
mp-6015,LiSiNO,5.2543999999999995
mp-1217407,Tc3Os,0.0
mp-7962,YbAgS2,0.0
mp-7964,YAlO3,3.4964999999999997
mp-7015,CsCeS2,0.042899999999999494
mp-7972,RbLaO2,3.5220000000000002
mp-687081,YbCoO3,0.0
mp-775910,ZrO2,3.3165999999999998
mp-8035,B4C,0.0
mp-768383,SmBiO4,0.48360000000000003
mp-8057,Ti3O5,0.0
mp-7685,BaRhO3,0.0
mp-8066,Cu3As,0.0
mp-775935,ZrO2,3.8528000000000002
mp-704184,LiMn(PO3)4,0.0
mp-704223,YbFeGe2O7,0.0
mp-775980,ZrO2,3.5759999999999996
mp-765121,LiMn3O5F,0.0
mp-974571,Mn3Be,0.0
mp-1025314,Mn(AlS2)2,0.0
mp-1909,LaMg2,0.0
mp-571030,TlPd3,0.0
mp-1094978,HfMg,0.0
mp-10131,Zn3(Ni10B3)2,0.0
mp-29331,KH3F4,7.363700000000001
mp-765413,Li2AgF6,0.0
mp-6094,Ca2MgSi2O7,4.467700000000001
mp-29761,UCO5,2.2607999999999997
mp-7858,MgUO4,1.6931000000000003
mp-775789,Li2VF6,2.1976999999999998
mp-775792,AlVO3,2.1441999999999997
mp-775796,Li2Ti3NbO8,0.0
mp-698728,Ba2CaY(Co4O7)2,0.0
mp-685977,Gd5AgSe8,0.9083000000000001
mp-764974,Li2V(OF)2,1.6495999999999997
mp-775811,LiVFeO4,1.1134999999999997
mp-685999,Ag4SI,0.0
mp-686050,CePaO4,0.0
mp-7916,HfSiS,0.0
mp-7917,HfGeSe,0.0
mp-7918,HfGeS,0.0
mp-775831,TiMn2O6,1.3592999999999997
mp-764986,Li4Ni3O6F,0.0
mp-7926,TaSe2,0.0
mp-793,Ca5Si3,0.0
mp-7930,Zr3(Cu2Si)2,0.0
mp-7935,USbTe,0.0
mp-768013,Li5Fe(Ni2O5)2,0.0
mp-7942,NaTiS2,0.0
mp-764999,Li2(CoO2)3,0.0
mp-7958,KLaO2,3.8678000000000003
mp-795639,Rb2Be4Pt3,0.0
mp-796,Nb3Al,0.0
mp-7028,YbOF,2.1586999999999996
mp-690149,Li(CoO2)8,0.11389999999999989
mp-690241,Zr2Cr2F3,0.0
mp-772857,K2GaPCO7,3.6731999999999996
mp-795,LiSi,0.0
mp-7003,CePPd,0.0
mp-2773,BeCo,0.0
mp-771606,Li2Cr3SnO8,0.0
mp-780757,Fe2O3F,0.0
mp-1079926,La2ZrNiO6,1.8862999999999994
mp-1238820,TaBC,0.0
mp-782697,Li3(FeO3)2,0.0
mp-764914,Li3Ti4VO8,0.0
mp-775726,Li2Ni3SbO8,0.22350000000000003
mp-675334,LiTi2O4,0.0
mp-675332,InI4,0.0
mp-775732,Li2MnFe3O8,0.0
mp-758531,LiCuPO4,0.0
mp-782702,Ni5O6,0.0
mp-8504,Yb2TeO6,0.0
mp-758750,LiCuPO4,0.0
mp-775742,Li2Fe3TeO8,0.06780000000000008
mp-675433,Mn2SbTe,0.0
mp-782713,Li3TiCr2O6,0.0
mp-782719,LiVF4,2.0968999999999998
mp-767705,LiCo(CO3)2,0.0
mp-775757,HfO2,4.016500000000001
mp-675496,Fe2SnS4,0.0
mp-783902,Dy2V2O7,0.47440000000000015
mp-775774,AgBiO3,0.0
mp-675525,InGaSe2,0.0
mp-675537,Tl4Te3Mo,0.0
mp-7879,Sr(AgGe)2,0.0
mp-7880,Sr(SiAg)2,0.0
mp-7881,Sr(CdGe)2,0.0
mp-7882,Ba(AgSn)2,0.0
mp-7883,Ca(GeAu)2,0.0
mp-764976,Li2Cr(PO4)2,0.0
mp-6992,Eu(NiAs)2,0.0
mp-7905,SiO2,4.7646999999999995
mp-7915,ZrSiO,0.0
mp-80,Sb,0.0
mp-800,TmB2,0.0
mp-8003,SiCN,0.0
mp-8097,SiP,0.0
mp-690117,K(WO3)6,0.0
mp-775965,Fe3Cu2Sn(PO4)6,0.0
mp-775967,Mn3NbCr2(PO4)6,0.0
mp-704235,Ni7(PO4)6,0.0
mp-690460,BaLa2Mn3O9,0.0
mp-765140,VF5,2.776
mp-6907,SrSi,0.0
mp-690760,TiH,0.0
mp-675514,Ce3AsS3,0.0
mp-685956,In4As3Se,0.0
mp-690789,K3ReH6,0.0
mp-1607,YbCu5,0.0
mp-8414,K2HfF6,6.897600000000001
mp-690535,Na(WO3)2,0.0
mp-23885,SrH12(ClO3)2,5.047499999999999
mp-7982,Mg2SiO4,4.3953999999999995
mp-17753,Nd3RuO7,0.0
mp-643409,Ba4Y(CuO3)3,0.0
mp-997028,AgO2F,0.49429999999999996
mp-1039443,MgCd,0.0
mp-367,Sm4Sb3,0.0
mp-20761,LaCoGe,0.0
mp-864659,Nd2NiIr,0.0
mp-864940,Mg2PtRh,0.0
mp-19574,Mg3Fe2(SiO4)3,2.7116999999999996
mp-756317,Al2HgO4,1.3460999999999999
mp-1226076,CoNi,0.0
mp-1183761,CeEr3,0.0
mp-1186662,PuGaO3,0.0
mp-1207079,SrH3Pd,0.0
mp-755810,EuZr4O9,0.27859999999999996
mp-764666,Mn3(O2F)2,0.0
mp-984698,Ca3Pt2,0.0
mp-984699,BaSr3,0.0
mp-756244,CaEu2O3,0.015199999999999214
mp-675028,K(OsO3)2,0.0
mp-756309,Ce4DyO9,2.1512000000000002
mp-7564,Nb3Te4,0.0
mp-850160,Li7(CoO3)2,0.40870000000000006
mp-764777,CoOF,0.0
mp-972892,MgHg5,0.0
mp-756684,Sr2Li2Nb3O10,0.0
mp-764820,Fe2OF3,0.45369999999999977
mp-764818,Fe4O5F3,0.0
mp-764823,Li5Mn6O16,0.0
mp-764884,Fe4O7F,0.0
mp-782664,Ti3MnO8,1.8236999999999999
mp-775687,Li3Fe2F9,3.9425999999999997
mp-782666,Mn2O3F,0.0
mp-984788,Ba4Er(RuO4)3,0.0
mp-984836,DyB4Ru,0.0
mp-675143,Eu(GdS2)2,0.36599999999999966
mp-764898,V3O5F,0.0
mvc-66,Mg(FeS2)4,0.0
mp-782682,FeOF,0.9965999999999999
mvc-93,Ca(MnS2)4,0.0
mp-698,U3O8,0.0
mp-782688,Li2FeF4,0.0
mp-675252,Yb2MnS4,0.0
mp-675271,Na2CO5,0.0
mp-7580,Hg3(SF)2,1.8372000000000002
mp-782690,Mn6O11F,0.0
mp-782692,Mn7O12,0.0
mp-782695,Li4CoOF5,0.0
mp-782698,Li2TiMnO4,0.0
mp-675460,LiTiCl3,0.0
mp-675479,PuPaO4,0.0
mp-7829,MnNbSi,0.0
mp-7861,CrCuSe2,0.0
mp-787,U3P4,0.0
mp-7875,Ba(MgSi)2,0.0
mp-7877,Sr(CuSi)2,0.0
mp-7876,Ba(MgGe)2,0.0
mp-7878,Ca(AgGe)2,0.0
mp-768,TmAl3,0.0
mp-7947,PtO,0.0
mp-797,DyPd3,0.0
mp-765134,FeOF,0.0
mp-690344,Rb5(W4O15)2,0.0
mp-851,ErPd,0.0
mp-1094547,MgSb2,0.0
mp-10736,Ba3N,0.0
mp-18293,SiP2O7,5.4559999999999995
mp-765432,Li2V3CoO8,0.0
mp-3040,TbCo3B2,0.0
mp-974951,Rb3Hg,0.0
mp-1007755,HfAu,0.0
mp-997167,NiAuO2,0.0
mp-974038,Ni2W4C,0.0
mp-722912,Hf3Zn3C,0.0
mp-672340,LiIn2Ru,0.0
mp-865017,Dy2ZnRu,0.0
mp-865587,Y2CuRh,0.0
mp-639787,K3VO4,4.041300000000001
mp-998615,CaTlF3,4.556699999999999
mp-765454,TiCr7O12,0.0
mp-1183182,AcMgZn2,0.0
mp-673875,Fe2RhS4,0.0
mp-764426,LiFeO3,0.04929999999999968
mp-752721,LiCu2F5,0.0
mp-9656,BaY2PdO5,1.9870999999999999
mp-696678,PH2NO2,0.0
mp-696695,BaCaCO3,0.0
mp-696717,H7O4,0.0
mp-674355,Co(NiS2)2,0.0
mp-753375,Sr3Ir2O7,0.0
mp-966801,LiCaBO3,5.328
mp-696822,LiNO3,0.0
mp-674382,Na3NO2,0.0
mp-983608,UGePt,0.0
mp-983609,MgIn5,0.0
mp-9687,K2PAu,0.9503999999999999
mp-9694,Tm3(GePd)4,0.0
mp-8499,Ho2Cr2C3,0.0
mp-697180,Mg3In,0.0
mp-697196,Ta,0.0
mp-754663,Na2Be2O3,4.268000000000001
mp-971662,Si,1.3094000000000001
mp-754845,La3Ti2N3O4,0.9397999999999991
mp-674858,Co(NiS2)2,0.0
mp-7646,Cs2PrO3,0.0
mp-7825,K2GeF6,5.799799999999999
mp-984586,Nb4Co4Si7,0.0
mp-971718,ZnBi3,0.0
mp-767632,VPO4,2.0713999999999997
mp-971724,Ti2Si2O5,0.0
mp-7557,Nb5SiSn2,0.0
mp-971740,Sr3As,0.0
mp-984635,LiErSn,0.0
mp-7558,TaGe2,0.0
mp-675025,SbRhO4,0.0
mp-971767,ZnHg3,0.0
mp-971768,Ti3Br,0.0
mp-971830,U3Sb4Rh3,0.0
mp-972256,Xe,6.1671
mp-972285,Sr3Li,0.0
mp-972300,Sr3Lu,0.0
mp-984715,Ba3Er,0.0
mp-6978,RbHoO2,3.6250999999999998
mp-972895,ScAu3,0.0
mp-7567,UGeO4,0.0
mp-756670,Eu2Pb2O7,0.0
mp-675078,Ba(FeS2)2,0.0
mp-972908,La3Dy,0.0
mp-984726,Dy(Al2Cu)4,0.0
mp-7568,ThSb2,0.0
mp-972912,La3Er,0.0
mp-972916,MgCu,0.0
mp-984744,Ca3Tl,0.0
mp-984754,PmHo3,0.0
mp-675098,SiH2O,0.0
mp-972954,MgCd2,0.0
mp-984772,Ce3Zn,0.0
mp-984776,BeIn3,0.0
mp-984779,CeDy3,0.0
mp-7573,Co(BW)2,0.0
mp-984873,Al3Fe,0.0
mp-984876,Ba2Pd2O5,0.0
mp-973019,LiSm(CuP)2,0.0
mp-985059,AcLa3,0.0
mp-7870,GdO,0.0
mp-775944,Ba2Ti6N2O11,1.4450000000000003
mp-689973,Li2Fe(PO4)2,0.0
mp-765049,Li6FeO5F,0.0
mp-768656,NaSbCSO7,3.9612000000000003
mp-690313,Na(CoO2)8,0.0
mp-753717,Cu4OF6,0.0
mp-7565,SbRu,0.0
mp-6982,ErB2Rh2C,0.0
mp-6754,TmNi2B2C,0.0
mp-10004,Mo3P,0.0
mp-18728,NaFe2O3,0.0
mp-8393,Tl3SbS3,1.592
mp-765541,Li2VF4,2.6512000000000002
mp-569048,MgBIr,0.0
mp-568324,Cr5Ge3,0.0
mp-771210,Li3CrFe3O8,0.0
mp-776136,Li2VCrO4,0.9750000000000001
mp-769052,Bi4(BO4)3,0.0
mp-655353,Ru(CO)4,2.2135000000000002
mp-972569,Sm(MnAl2)4,0.0
mp-982780,K3Cd,0.0
mp-1101091,Dy3(In2Co)2,0.0
mp-865907,LiZn3,0.0
mp-974843,Rb3Os,0.0
mp-1024983,ErInNi4,0.0
mp-7166,Pr3TlC,0.0
mp-7554,LiMgSnAu,0.0
mp-19385,YMnO3,0.0
mp-38292,Sm(BiTe2)2,0.0
mvc-11411,FeS2,0.0
mp-13939,Sr2ErReO6,0.0
mp-2542,BeO,7.4597999999999995
mp-1187800,Zn2CuRh,0.0
mp-1217419,Tc3Mo,0.0
mp-672645,TiSiRh,0.0
mp-672646,Sm2(InCo3)3,0.0
mp-973529,LuB4Os,0.0
mp-7609,SbOF,3.3084000000000002
mp-973540,LuAlB4,0.0
mp-9397,HfTlCuSe3,0.42320000000000046
mp-672676,U(WC)4,0.0
mp-9407,Nb3SnS6,0.0
mp-776813,LiMnF4,1.1844000000000001
mp-942,AuF3,1.4722999999999997
mp-672679,Y4InIr,0.0
mp-8387,Tl6TeO6,1.5632999999999995
mp-8388,K2CuF4,0.378
mp-973612,Hf9CoMo4,0.0
mp-973627,K3Sr,0.0
mp-8418,ZrCoP,0.0
mp-9440,YbAgSb,0.0
mp-981747,Sm5Mg,0.0
mp-765613,Li(CuO)3,0.0
mp-6730,Sr3ZnPtO6,2.5660999999999996
mp-7443,Nb2CrSe4,0.0
mp-8446,K2CuP,1.1421000000000001
mp-761502,Cu2Ni11O13,0.0
mp-9459,Y4C5,0.0
mp-982013,Sr3Tm,0.0
mp-9483,Zr9V4S,0.0
mp-7774,Na2SbAu,0.36970000000000036
mp-846,Hf2Al3,0.0
mp-8462,Hf3Al2,0.0
mp-774473,LiNbCuO4,0.0
mp-8466,SmNiGe3,0.0
mp-8467,YNiGe3,0.0
mp-8468,Sr(SbPd)2,0.0
mp-982045,YbB4Ru,0.0
mp-8487,CaSbPt,0.0
mp-9516,Al2SiO5,5.4620999999999995
mp-9521,Th7Te12,0.0
mp-9522,K(ThSe3)2,0.0
mp-9523,Rb(ThSe3)2,1.0211000000000001
mp-9527,NdMnSi2,0.0
mp-9529,DyGeRh,0.0
mp-9540,SmMgF4,0.0
mp-765995,Ba(WO3)6,0.0
mp-982376,SrHg3,0.0
mp-777603,LiMnCo3O8,1.0574000000000001
mp-673129,Sn(PO3)3,0.0
mp-9552,LaCo5P3,0.0
mp-982380,Li2Mg,0.0
mp-9563,Li2Sb,0.0
mp-982511,HoGa2Pd,0.0
mp-982635,Tm3Al2,0.0
mp-982662,Eu2MgSi2O7,0.011800000000000033
mp-9577,Ca3(AlSi)2,0.0
mp-9578,Ba3(AlSi)2,0.0
mp-9827,RbHg2,0.0
mp-7664,Na6ZnO4,1.5335999999999999
mp-982777,TmB4Os,0.0
mp-695771,Eu(Ni3S4)2,0.0
mp-673635,Fe3N,0.0
mp-982883,Na6Cd16Au7,0.0
mp-9605,Hf3Si3Ni2,0.0
mp-7463,Cu3P,0.11369999999999969
mp-7466,CaCu2O3,0.0
mp-7467,RbCuO2,0.9136000000000001
mp-673824,Fe(NiS2)2,0.0
mp-7471,Li3AuO3,1.8710999999999998
mp-6962,Ba(AsPd)2,0.0
mp-7522,Th2SbN2,0.0
mp-983445,Na3Pt,0.0
mp-9632,CsReF6,0.0
mp-7644,LuAsO4,3.5333000000000006
mp-983458,Tl3Cl,0.0
mp-7524,NbPSe,0.0
mp-983479,Sm3Si,0.0
mp-9835,CoSb2,0.0
mp-983509,Na3Cd,0.0
mp-6963,Ba(SbPd)2,0.0
mp-6964,NaTbO2,3.8922999999999996
mp-983550,Pa3Nb,0.0
mp-767,Yb3Ge5,0.0
mp-983562,Na3Nd,0.0
mp-9657,LiAsO3,3.3857999999999997
mp-983582,CaNd3,0.0
mp-7785,CsCu4S3,0.0
mp-7531,Ca4Al6O13,3.9417999999999997
mp-7786,CsCu3S2,1.6845999999999999
mp-696904,CaBi2(CO)2,0.0
mp-983607,V3Cd,0.0
mp-9690,Ca(AlGa)2,0.0
mp-7645,KAl(SO4)2,5.5291999999999994
mp-753898,LaTmO2,0.0
mp-7540,Cu3P,0.0
mp-697068,SiPd2,0.0
mp-984100,PPb3,0.0
mp-754163,BeClO,0.0
mp-7542,GeP3,0.0
mp-9716,TiBO3,0.0
mp-971632,GaP,0.21080000000000076
mp-674514,In5CuS8,0.16140000000000043
mp-754392,BaEuO2,0.0
mp-7544,ZrSiRu,0.0
mp-984351,CuAg3,0.0
mp-984358,Au3O,0.0
mp-754689,Gd(AlGe)2,0.0
mp-971669,FeSb3,0.0
mp-971682,Si3N2,0.12220000000000031
mp-984523,CsCa3,0.0
mp-973123,ScPdO3,0.0
mp-775911,La2Nb2N2O5,1.8865999999999996
mp-703326,InRe4H8NO20,0.0
mp-8054,NaSc(GeO3)2,3.5523000000000002
mp-8056,Ca(BO2)2,6.020300000000001
mp-775936,Na3LiCuPCO7,1.5761000000000003
mp-775941,Cr2Ni3Sb(PO4)6,0.0
mp-775969,V3Cr3(WO8)2,1.0399000000000003
mp-704141,Sr5(CoO3)4,0.0
mp-782,Te2Pd,0.0
mp-971647,NaMnO2,0.0
mp-11554,ZrPt,0.0
mp-636953,V6Si7Ni16,0.0
mp-8331,Li12Mg3Si4,0.0
mp-1094256,Y3Sn,0.0
mp-30961,Ca7Tl3N2,0.0
mp-5382,Sc6Si7Ni16,0.0
mp-1004526,WS,0.0
mp-1087238,Y(CuSn)2,0.0
mp-1077933,GdCu2,0.0
mp-1013709,Ba3AsN,0.0
mp-984705,ErRu3,0.0
mp-569376,FeB2,0.0
mp-862752,SmBiPd2,0.0
mp-30803,PuNi2,0.0
mp-972370,Yb2InHg,0.0
mp-568890,Tl2CdGeTe4,0.351
mp-570256,Ag2HgI4,1.0991999999999997
mp-765573,Li4Zr3O8,3.6980999999999997
mp-10125,SbIr,0.0
mp-974690,Rb2CuCl4,0.0
mp-999054,Ti2GaCo,0.0
mp-1207818,Y4CdPd,0.0
mp-1184005,GaCuNi2,0.0
mp-1218354,SrBeSi,0.0
mp-9177,Y2Al3Si2,0.0
mp-7376,Sr3(AlSn)2,0.0
mp-9191,Na3SbTe3,1.4544999999999995
mp-7377,Ba3(AlSn)2,0.0
mp-7380,CsRb2SiF7,5.487299999999999
mp-9201,K4Ge2Au7,0.0
mp-7385,K2Be2PbF8,5.547
mp-9211,Tm2Fe2Si2C,0.0
mp-9225,ScSiPt,0.0
mp-9228,HgSeO3,2.5448999999999997
mp-9251,TlTe3Pt2,0.0
mp-669542,Ba4Cu3Ge20,0.0
mp-669550,Ce3Mn(Al3Cu)8,0.0
mp-669556,Pu5Pt3,0.0
mp-669713,Gd2Ni7,0.0
mp-9293,EuGeAu,0.0
mp-6710,Ba2Tm(CuO2)4,0.0
mp-6716,Ba4Zr(RuO4)3,0.0
mp-6721,Sr3LiRuO6,0.399
mp-9324,Ba3MnN3,0.0
mp-672194,CaIn4Ni,0.0
mp-9333,La3TiSb5,0.0
mp-672213,Eu(AsPd)2,0.0
mp-8116,K(MoS)3,0.0
mp-8117,Rb(MoS)3,0.0
mp-973147,Mg5Sc,0.0
mp-812,Ho2O3,3.9457999999999998
mp-8129,NiC2(SN)2,0.0
mp-7735,Pr5(CoB3)2,0.0
mp-8132,Li(TiSe2)3,0.0
mp-7050,ZrTlCuSe3,0.23679999999999968
mp-973225,Na2CrH2F8,1.8302999999999998
mp-8187,K2ZnO2,1.9785000000000001
mp-973241,Sm3Ni7B2,0.0
mp-672244,GdAl4Ge2Au,0.0
mp-8201,Rb3PdF5,2.2340999999999998
mp-8203,Zr(PS3)2,1.5319000000000003
mp-8211,GaGeTe,0.11869999999999958
mp-8215,LaYbS3,0.0
mp-672265,Cu3Pd,0.0
mp-776774,Li3FeF5,4.216600000000001
mp-672267,Ce(SnPt)2,0.0
mp-773769,Li2MnCo3O8,0.0
mp-672271,NbSe2,0.0
mp-672275,Ce3(Ge3Pd10)2,0.0
mp-8253,Na5ReO6,2.2527999999999997
mp-6723,Sr3ZnIrO6,0.0
mp-8261,Ba3Yb4O9,0.0
mp-672314,Mg3In,0.0
mp-672322,Eu3(B3Rh4)2,0.0
mp-743752,Al4C3,0.0
mp-8271,Ba2Ca(BO2)6,4.959300000000001
mp-8514,BaNd2PdO5,2.2190999999999996
mp-672335,YIn2Ni9,0.0
mp-973410,NdAl2Cu9,0.0
mp-8530,Ca(Mo3S4)2,0.0
mp-8531,Lu5Ni19B6,0.0
mp-8306,Ba3FeN3,0.0
mp-672368,UVN2,0.0
mp-973455,LiMg2,0.0
mp-672373,La3Co4Sn13,0.0
mp-7439,K3Cu3P2,1.2892000000000001
mp-9353,Dy5Ni2Sb,0.0
mp-973508,KRb3,0.0
mp-973524,HoVB4,0.0
mp-982008,Hg3F,0.0
mp-9473,Ba(NiP)2,0.0
mp-8453,RbNaO,1.9855999999999998
mp-9480,KAlSiO4,4.5009999999999994
mp-8456,SrAsPt,0.0
mp-8458,BaAsPt,0.0
mp-982016,Tm3Ga,0.0
mp-982018,Ho3Sb,0.0
mp-949029,Cs,0.0
mp-982044,Sm3Zn,0.0
mp-9497,Pr2C(NO)2,3.7169999999999996
mp-982064,Tl3Br,0.0
mp-982065,PrHo3,0.0
mp-765806,ZnCoO3,0.0
mp-8481,LiPrGe,0.0
mp-8482,LiYbGe,0.0
mp-982070,VIr,0.0
mp-7775,U2AlCu3,0.0
mp-8490,LiGe,0.0
mp-982188,Y(Mn2Fe)4,0.0
mp-982195,KNd3,0.0
mp-982243,Y3Sn,0.0
mp-982244,Pa3H,0.0
mp-982261,PbSe2,0.0
mp-982321,Yb3W,0.0
mp-982367,Pm3Zr,0.0
mp-9545,Tm2C3,0.0
mp-9546,Yb2C3,0.0
mp-982373,Pm3Zn,0.0
mp-9549,ScFeGe,0.0
mp-9550,ScMnSi,0.0
mp-982378,Na3Cr,0.0
mp-9556,SrZnSi,0.0
mp-7660,BaRhF6,0.0
mp-956096,HfFe2,0.0
mp-9562,LiBeAs,1.0077000000000003
mp-6954,SrAgAs,0.0
mp-982448,Pm3Y,0.0
mp-982510,P3Au,0.0
mp-982557,HoGa3,0.0
mp-9566,Sr(MgSb)2,0.9813000000000001
mp-982597,Pa3W,0.0
mp-982619,Ho3Tm,0.0
mp-982637,Na3Mg,0.0
mp-982664,K3In,0.0
mp-982729,Sm3Np,0.0
mp-6956,La(FeP)2,0.0
mp-673252,Mo3N2,0.0
mp-7778,Li2PrAs2,0.0
mp-9586,NbSnS2,0.0
mp-9587,TaMoN,0.0
mp-982778,Zn3Se,0.0
mp-9592,Yb(MnAs)2,0.0
mp-673636,Sm3S4,0.0
mp-982871,Na3Pt,0.0
mp-7751,PuPt5,0.0
mp-982881,PmTm3,0.0
mp-9600,Cu2GeO4,0.0
mp-982981,Na3Rh,0.0
mp-983061,Sr(AsO3)2,3.2451999999999996
mp-778,Fe2P,0.0
mp-983152,Li3Re,0.0
mp-764314,LiMnF6,0.0
mp-983228,SrEu2Al2O7,0.0
mp-7474,Cu2As,0.0
mp-962,SmZn2,0.0
mp-7477,RbErO2,3.6465999999999994
mp-7479,RbYbO2,0.0
mp-7480,RbLuO2,3.6930999999999994
mp-7783,La(BC)2,0.0
mp-7486,BaNiS2,0.0
mp-10,As,0.0
mp-1009504,EuZnGe,0.0
mp-1013586,Ba3AsP,0.0
mp-10140,Sc3TlB,0.0
mp-1016059,CrN2,0.0
mp-1025009,CoNiSb,0.0
mp-1038976,CeMg5,0.0
mp-1039275,CaZn,0.0
mp-1056702,Mg,0.0
mp-10661,Tm,0.0
mp-1079257,YMg(NiH)4,0.0
mp-1094474,MgZn,0.0
mp-1094614,MgGa3,0.0
mp-1099324,NaCeMg6,0.0
mp-1100169,CsMg6W,0.0
mp-1100171,CsMg6Mo,0.0
mp-1100776,ZnBi3,0.0
mp-1102319,Lu2Pt,0.0
mp-1102777,SmNiP,0.0
mp-1111591,K2AlTlBr6,2.6754000000000002
mp-1112129,Cs2RbBiCl6,3.976
mp-1120722,CuO,0.0
mp-11489,Li3Pd,0.0
mp-1154470,Ca3Ti2(SiO4)3,0.0
mp-1184319,Eu3Zr,0.0
mp-1185032,KAc3,0.0
mp-1185187,Li3Mo,0.0
mp-1186243,PmNd3,0.0
mp-12058,Er(PRu)2,0.0
mp-1209384,Rb3Zn3(MoO4)4,0.0
mp-1212582,Eu2Al3O8,0.29300000000000015
mp-1213851,Cd2P,0.0
mp-1216439,V6CoNi,0.0
mp-1219092,SmMnIn,0.0
mp-1225041,DyZnSi,0.0
mp-12571,HfBeSi,0.0
mp-16358,ZnNi2Ge,0.0
mp-21171,MnGaCo2,0.0
mp-21471,LiFeAs,0.0
mp-225,ErZn5,0.0
mp-22898,KI,3.8512999999999997
mp-31298,ErSnRh,0.0
mp-3173,CaAlSi,0.0
mp-4131,Sc(CoSi)2,0.0
mp-545436,Ba2YbBiO6,0.0
mp-556880,SiO2,5.020300000000001
mp-558139,CuS,0.0
mp-559252,NaIO3,3.3299999999999996
mp-568083,LaNi2B2C,0.0
mp-569396,BaLi2(MgGe)2,0.0
mp-570457,Mg6Si7Ni16,0.0
mp-570466,Li2Ca,0.0
mp-571098,Lu(FeSi)2,0.0
mp-637232,TaSe2,0.0
mp-640562,KYb3F10,0.0
mp-6474,Ba3MgNb2O9,2.6479999999999997
mp-653429,Mn7FeCl3O10,0.9382000000000001
mp-653838,ZrFe12Si2B,0.0
mp-654,Ce2Fe17,0.0
mp-6564,Sr2MgSi2O7,4.495900000000001
mp-656880,Y2Mn2S2O5,0.0
mp-6583,Ba2Er(CuO2)4,0.0
mp-6602,SrCu2(BO3)2,0.0
mp-6606,SrYSi4N7,2.7441999999999993
mp-6616,Ba2HoCu3O7,0.0
mp-662609,Ce3(Si3Pd10)2,0.0
mp-6645,Ba14Na14CaN6,0.0
mp-665747,EuAg,0.0
mp-672292,Gd3Se4,0.0
mp-672294,Eu(CoSi)2,0.0
mp-672297,Cr(GaS2)2,0.0
mp-672299,YInNi,0.0
mp-672307,NdInPt,0.0
mp-672310,Th(GeRu)2,0.0
mp-672388,ThPb,0.0
mp-672708,Fe(CuS)2,0.0
mp-672709,Fe(CuS)2,0.0
mp-672953,Np(FeGe)2,0.0
mp-674149,Ru4Pb4O13,0.0
mp-684935,Ba2Ho2Al3Si5N11O3,0.0
mp-684989,W9C4,0.0
mp-685068,YbBr3,0.0
mp-685137,Ce2SbO2,0.0
mp-685138,U2AsSe,0.0
mp-685155,ZrCl3,0.0
mp-685926,Nd10US16,0.0
mp-685941,In4SbTe3,0.0
mp-686040,MgU2O6,0.0
mp-686717,Fe2NiSe4,0.0
mp-687057,Sr2CoReO6,0.0
mp-6896,Rb2NaCo(CN)6,4.338900000000001
mp-689981,MnPO4,0.0
mp-690058,FeP2O7,0.18420000000000003
mp-690123,BaW6O19,0.0
mp-690161,Li9Mn20O40,0.49960000000000004
mp-6903,Na2Ca4ZrNbSi4O17F,3.7723999999999998
mp-691150,Lu4V4O13,0.0
mp-6914,CaGa,0.0
mp-6916,Sm(BC)2,0.0
mp-6917,TmAgSn,0.0
mp-6919,ScSnAu,0.0
mp-692,Tb2C,0.0
mp-699554,SrLaMn2O6,0.0
mp-703370,Ca13Si10H12(O17F5)2,5.0306999999999995
mp-704193,Rb6U5V2O23,1.747
mp-704227,Mn9(PO4)8,0.25039999999999996
mp-720995,Sr2C2N3,0.0
mp-7224,ThC2,0.0
mp-7273,Te8Rh3,0.0
mp-7276,ScUS3,0.0
mp-7291,CrP2,0.0
mp-7302,CrP4,0.0
mp-7303,ErCd3,0.0
mp-733675,K6Na15Tl18H,0.0
mp-7352,MgCuP,0.018499999999999517
mp-7561,SrPd3O4,0.0
mp-7597,NbSe2,0.0
mp-7600,Th(FeSi)2,0.0
mp-761,CeCu5,0.0
mp-764975,LiMnF4,2.1818999999999997
mp-764997,MnOF,0.0
mp-765012,V3O2F5,1.2925999999999997
mp-765058,Li2VCr(P2O7)2,2.1127000000000002
mp-765064,Li2VCrP2(O4F)2,1.9782000000000002
mp-765410,LiNiOF,2.1881999999999997
mp-767727,LiMn2OF5,0.0
mp-767785,Li4Mn2Cr3Sb3O16,0.39620000000000033
mp-767786,Li4Ti2Fe3Ni3O16,0.0
mp-768033,LiNiPHO5,0.017099999999999893
mp-768104,Li6(NiO2)13,0.0
mp-768517,Tm2GeO5,3.5728999999999997
mp-768519,Y2TeO6,1.6015000000000001
mp-768755,Li2Sn2(SO4)3,3.9606999999999997
mp-771459,Li4CrNi3O8,0.0
mp-771715,Li3Mn(CuO3)2,0.0
mp-771718,Li3Mn2CuO6,0.0
mp-771720,Li3Mn2NiO6,0.0
mp-7720,Ce2Ga10Ni,0.0
mp-772213,La4CuO8,0.0
mp-772245,CrPtO2,0.0
mp-772333,Li2Ni3SbO8,0.47460000000000013
mp-7738,LaSeF,1.7260999999999997
mp-7739,Ba2ZnF6,4.732399999999999
mp-775805,Zr2N2O,1.9187999999999996
mp-775847,V2O5,2.5161000000000002
mp-775864,NaCo11O17,0.0
mp-775868,NbFe3(PO4)6,0.0
mp-775891,Mn3Fe3(SbO8)2,0.0
mp-775892,Ti3MnSb2(PO4)6,0.0
mp-776784,Li3FeF6,3.8122999999999996
mp-776814,LiMnF3,3.4012000000000002
mp-7769,Th2SN2,1.4196999999999997
mp-780093,Fe3(O2F)2,0.0
mp-780705,Na(Bi3O5)4,0.0
mp-780823,Mn3(O2F)2,0.0
mp-780856,Co6O7F5,0.0
mp-780868,Fe4O7F,0.0
mp-7999,Y2Si2O7,4.927899999999999
mp-8207,Zn(PtO2)3,0.31130000000000013
mp-8220,LiTb(CuP)2,0.0
mp-8221,ZrAsRu,0.0
mp-8236,Ba(PPd)2,0.0
mp-8255,CaPtF6,2.643
mp-8268,Yb2CdSe4,0.0
mp-8272,Yb2MgS4,0.0
mp-8291,BaTiF6,4.316000000000001
mp-8307,CaNi4B,0.0
mp-8312,Ta5As4,0.0
mp-8335,Ba2ZrO4,2.9787999999999997
mp-8365,MnB,0.0
mp-8405,Li3LaSb2,0.20389999999999997
mp-8406,Li3NdAs2,0.035800000000000054
mp-8409,KYO2,3.9738999999999995
mp-8431,Ca(BRh)2,0.0
mp-85,In,0.0
mp-8528,Tm(SiRh)2,0.0
mp-861958,Ti2MnBe,0.0
mp-865011,Mn2NbAl,0.0
mp-865334,Lu2NiOs,0.0
mp-865664,TiRe2W,0.0
mp-867786,ScNbOs2,0.0
mp-8700,K2Au3,0.0
mp-872,BaSn,0.0
mp-8727,Ba4PtO6,1.8015999999999996
mp-8753,K4HgP2,0.9356000000000001
mp-8759,Cs2ZrO3,3.854
mp-8760,Dy5P12Ru19,0.0
mp-8768,K2CoSe2,0.0
mp-8769,Rb2CoSe2,0.0
mp-8793,Nd5(FeB3)2,0.0
mp-880,Pr2Fe17,0.0
mp-8868,Ba3NaN,0.0
mp-8872,RbNa2BO3,2.9274999999999998
mp-888,CaAs,0.0
mp-8895,Ca2B4Rh5,0.0
mp-8896,Sr2B4Rh5,0.0
mp-8914,SrGaSn,0.0
mp-8952,HoAsPd,0.0
mp-8959,CsK2PdF5,1.8660999999999999
mp-8974,Ba3Dy4O9,3.2409999999999997
mp-8983,CaSiPt,0.0
mp-9008,RbTeAu,1.1078999999999999
mp-9039,Sr4IrO6,0.0
mp-905,LaF3,6.0428999999999995
mp-9095,Tb2Si3,0.0
mp-9132,Ta3SnS6,0.0
mp-9227,Ti3Se4,0.0
mp-9341,GdAgGe,0.0
mp-9343,ErAgGe,0.0
mp-9349,KRb2ScF6,6.3812999999999995
mp-9350,ScGeAu,0.0
mp-9351,LuGeAu,0.0
mp-9357,Th(CrB3)2,0.0
mp-9363,RbNdS2,2.2645999999999997