task_id,pretty_formula,band_gap
mp-776335,Zr2N2O,1.7873
mp-776336,Ti2N2O,1.0187999999999997
mp-776337,Zr2N2O,1.7118000000000002
mp-776348,Na4Bi2C4SO16,1.1441
mp-776359,YNb2NO5,2.5304
mp-776360,Zr2N2O,1.791
mp-776361,Ti2N2O,0.939
mp-776362,Zr2N2O,1.5772999999999997
mp-776402,B10H13,3.2060000000000004
mp-776408,YNb2NO5,2.4179
mp-776437,LaTa2NO5,2.1631
mp-776442,Ba2YI7,2.8273
mp-776479,BaYI5,2.7575000000000003
mp-776502,LiTi2(PO4)3,2.6769
mp-776567,NaTi2(PO4)3,2.5131
mp-776599,NaTi2(PO4)3,2.6023
mp-776659,LiVPO4F,1.6608
mp-776662,LiCrPO4F,1.4027
mp-776664,LiV3OF11,1.2936
mp-776678,FeO,0.4281999999999999
mp-776889,LiMn2(PO4)3,0.6452999999999999
mp-778551,LiMn2(BO3)2,0.5912999999999999
mp-780885,LiMn3P3O11,3.1411
mp-780936,Li5V6O5F19,0.2493
mp-780941,LiV2P4(HO8)2,1.0883
mp-781009,Li3Cr(PO4)2,2.8064
mp-781013,Li3V2P4(HO8)2,0.8002
mp-781014,LiVP2HO8,1.3653000000000002
mp-781054,Li2Cr4O13,1.4861
mp-781074,LiMn2(BO3)2,0.4855
mp-781596,LiFeOF2,1.7248
mp-781618,Mn12O7F17,0.2056
mp-781628,Li7Mn8(BO3)8,0.5628
mp-795607,V2N4O11,0.6568
mp-849565,V2O5,2.314
mp-849583,YNb2NO5,2.2861
mp-1016048,CrN2,0.1477999999999997
mp-1020947,Y(PO3)3,5.8611
mp-1066400,NaN3,4.275
mp-1068742,SrZrO3,3.2609000000000004
mp-25100,Ni2GeO4,2.1356
mp-27508,Li6Br3N,2.0857
mp-27710,CrB4,0.13060000000000027
mp-37307,Na(WO3)2,0.002399999999999736
mp-559798,NiF2,4.8034
mp-561078,Rb2CoF6,1.179
mp-600023,SiO2,5.4879999999999995
mp-600083,SiO2,5.7039
mp-600351,NiH12C4(N2O3)2,2.1499
mp-605125,Rb4CeH12C3O17,0.2791
mp-614013,CsSnI3,0.5064000000000002
mp-614997,SnS16(Cl2O)2,2.0385
mp-615529,Os2Pt(CO)10,2.5877
mp-616190,Tl2(ReSe2)3,0.9673999999999996
mp-619775,Y7C2I12N,1.0406
mp-620190,V2P4S13,0.1524000000000001
mp-622262,Te6MoBr3,1.0895
mp-623135,Bi3(TeCl5)2,1.3883
mp-624000,Re(Te4Cl3)2,0.21110000000000007
mp-624474,Ru(SCl3)4,0.10749999999999997
mp-625072,Ni(HO)2,0.5337999999999998
mp-625711,MoH4O5,0.8767
mp-629015,BN,3.9689
mp-632176,TaTcPb2,0.0016999999999995907
mp-640748,Os(CO)4,2.9232000000000005
mp-641678,XeF6,2.5383
mp-641987,Sb8Pb7S19,1.0694999999999997
mp-649982,Sb8(Pb3S7)3,1.5115999999999996
mp-650336,PCN2Cl3,3.4967
mp-650524,Sb3S2XeN(O2F9)2,1.6944
mp-650978,Ru5C14(SO7)2,1.7639
mp-651728,VSb2NCl14,1.1919
mp-651961,Nb4Te17I4,0.9757000000000002
mp-669345,TaTeCl9,2.7776
mp-669348,NbTeCl9,2.2158
mp-669462,TeS2N3Cl5,0.4378
mp-669465,Te2S4(NCl3)3,2.1287000000000003
mp-669474,RbTeNO3F4,3.1786
mp-669476,Ba2ScCl7,3.6333
mp-669521,Nb3Te4ClO15,2.3493000000000004
mp-672315,PC2S2N3,3.3084
mp-674421,Tl8Cu4F11,0.7930000000000001
mp-675957,Sb26O53,1.1082
mp-676206,RbAg4I5,1.6335000000000002
mp-676329,Rb5Re3S7,1.6469999999999998
mp-676339,BaTa2O6,3.619
mp-676391,RbAg4I5,1.2412
mp-676687,RbAg4I5,1.1359
mp-676813,RbAg4I5,1.7041999999999995
mp-677002,SrZr12B2I5Cl23,1.1801
mp-677140,YAl6Si30(N15O)3,3.0805
mp-677195,Nd10Si10BrN17O9,2.9445
mp-677348,Nd8AlSi3(NO5)3,1.0276000000000003
mp-677612,Nd4AlSi5(NO)7,1.3171
mp-677628,Mg2TiO4,3.2878000000000003
mp-677636,Sr22Nb10O47,2.3652
mp-677670,Na2Al2Si3(HO3)4,1.8232
mp-677716,RbAl3Cd(SiO4)3,1.8815
mp-679948,Os3C8(SO4)2,1.7177
mp-679967,Nb3Se10Br3,1.2044
mp-679969,PCN2Cl3,3.6218
mp-679987,NbP2S2Cl5,1.6878
mp-680008,P6N6Cl10O,4.1073
mp-680183,Te5As2Br4O5F26,2.1236
mp-680240,Sb2Cl5F4,2.3152
mp-680280,Ru3C10(NO6)2,1.0938
mp-680284,Rb6Ta4S25,1.4821000000000002
mp-680286,Os5(CO)19,2.0255
mp-680384,Sr10Ga6O19,3.0095
mp-680432,Sr10Al6O19,3.6919
mp-680463,Rb4Pb9,0.31099999999999994
mp-680472,NaMo6Br13,1.9979
mp-681911,Sm4AlSi5(NO)7,1.5404
mp-683974,Pr2(SeO3)3,3.6441
mp-684018,SrB8O13,5.5745000000000005
mp-685249,K2OsO5,1.3774
mp-685291,AlPO4,1.4649
mp-685295,Sr22Nb10O47,1.7082999999999997
mp-685300,Ti4P8S29,1.0703000000000005
mp-685443,Sn(PCl6)4,1.544
mp-685813,Ti(PCl6)4,1.3551
mp-686239,Sr5Li25La7Nb8O48,3.2109
mp-686280,Nd4AlSi5(NO)7,1.6211000000000002
mp-686614,TaTi9Al3Zn23O48,1.6732
mp-686617,Nd10Si10N17ClO9,2.9399
mp-686618,YAl6Si30(N15O)3,2.913000000000001
mp-686745,Ba3LiTi5Nb3O21,2.1934000000000005
mp-693503,Zn2GaP3H8(NO6)2,2.3536
mp-694318,In2(WO4)3,4.2477
mp-694629,V3(PO4)4,1.1944
mp-695209,KNb4AsO13,2.4357
mp-695215,Y2Al9Si27(N15O)3,2.4673
mp-705472,AsS,0.944
mp-706279,Li2ZrFe(PO4)3,2.0109000000000004
mp-706477,La2Si2O7,1.9245
mp-706524,Sr3La4O9,2.4813
mp-707302,Rb10Al24Cd7(SiO4)24,2.2832
mp-707406,Rb6Te3P6(H13O20)2,3.47
mp-707469,P5H5N6(Cl4O)2,3.8886
mp-707490,K8TeP8(H5O16)2,0.5920000000000001
mp-707955,Ru4C12N2O13,1.57
mp-709549,SbTe6H12C4N(OF5)6,2.5999
mp-720112,Sr5Al10(Si7O24)2,4.2338000000000005
mp-720205,Sr3Tm3Al4Si8N17O4,1.6189999999999998
mp-720212,Rb9Na2Al11Si13O48,2.4145
mp-720255,Sr20P12Cl(O16F)3,5.1641
mp-720461,P3H22C3N9O11,4.9847
mp-722318,TmH16C4N11O13,3.2094
mp-723419,Sb2S19F12,1.9712
mp-733790,SiO2,5.593
mp-736386,VH24C4N4Cl7,0.14590000000000006
mp-738686,SbH24C6(NCl2)3,3.5956
mp-744014,TiMnFe(PO4)3,2.3224
mp-746324,V2As3H17C4N8O17,2.2969
mp-755901,Sm3NbO7,2.6062
mp-756436,FeO,0.6877000000000004
mp-758033,Y13Ho19O48,4.0174
mp-758224,Li3Sn2(PO4)3,2.9297
mp-758651,Li3Sb3(PO4)4,3.6363
mp-759330,Rb4Ge9(H3N)5,1.9827
mp-759792,Ag2B8O13,3.1034
mp-760014,LiSbF4,3.6756
mp-761090,Na3BiO3,2.7882
mp-761439,LiMn(SiO3)2,0.7142
mp-761945,Li3V3P8O29,0.3427
mp-762605,Li9Co13O28,0.01059999999999972
mp-762621,LiFe(PO3)3,3.7582
mp-762622,Li3Fe(PO4)2,2.24
mp-765584,Sb(PO3)4,0.11949999999999995
mp-765983,Li3V3P8O29,0.29399999999999993
mp-766359,BaCaI4,3.4196000000000004
mp-766361,Nb2O5,2.1388000000000003
mp-766409,Li3BiS3,2.1124
mp-767365,SnP4O11,3.9191
mp-767899,Li2SiNiO4,3.3892
mp-770068,NaVO2,1.4045
mp-771069,Li2FeBO4,2.3452
mp-771175,Li2MnBO4,0.9099
mp-772568,Li2Cr4O13,1.5112
mp-773980,Bi3(TeCl5)2,1.1743
mp-774368,Li6Mn5Fe(BO3)6,2.6076
mp-774539,LiTi2(PO4)3,2.6049999999999995
mp-774869,Na5Bi2As(CO4)4,0.4649000000000001
mp-776933,LiFe2F5,3.0921000000000003
mp-776937,LiFeF3,2.2218
mp-776966,Sn2N2O,0.1029
mp-777039,NaNiPO4,3.6817
mp-777129,TiO2,3.3083
mp-777292,Ba3Y2Br12,3.7768
mp-777481,Ba6YBr15,4.0156
mp-778242,Ti2Fe(PO4)3,0.17049999999999965
mp-778420,Fe5O3F7,1.3123999999999998
mp-849730,Na2Ti4O9,2.4246000000000003
mp-867022,CaSnS3,1.1208
mp-995238,SnH6CI3N,0.5633000000000001
mp-1002124,HfC,0.2957000000000001
mp-1017510,MgTe,0.8062999999999994
mp-1018659,CeO2,0.6968999999999994
mp-1069079,FeBiO3,1.3463000000000005
mp-1072956,MgF2,6.8537
mp-1078600,TmAgTe2,0.9387
mp-1094726,MgTi,0.06370000000000076
mp-1095589,UCl2O3,0.09799999999999986
mp-1096980,FeAgO2,1.0774
mp-1099588,SmFeO3,0.6885000000000003
mp-1100443,KNaSe,2.0648
mp-1103408,HC2N3,4.3949
mp-11131,K2Hg3(GeS4)2,1.5410999999999997
mp-1114627,Rb3LaCl6,4.5189
mp-12894,Y2SO2,2.9935
mp-12912,Ba2PrRuO6,0.13349999999999973
mp-13002,K2SiF6,7.1895
mp-13033,MgTe,2.3186
mp-16107,Rb3P6N11,3.9206
mp-16313,TbSbPt,0.09810000000000052
mp-19072,Si(NiO2)2,3.6153
mp-19845,TiPbO3,1.5827999999999998
mp-20684,Pr3AlN,0.03679999999999994
mp-22171,Cu3SbS4,0.03559999999999963
mp-23264,TiI3,0.1604000000000001
mp-24066,SrHClO,4.9798
mp-24262,KP(HO2)2,5.363
mp-26311,Li5Cu(PO4)2,1.9666
mp-27453,Li7SbO6,3.4971999999999994
mp-27519,SeO3,2.4312
mp-27949,Si2H6O,5.2626
mp-28044,TmCl3,4.917
mp-28090,Si2H2S3,3.3542
mp-29205,YBO3,5.1669
mp-29721,B3H5,3.8726
mp-30313,Tb2Se2O7,3.2198999999999995
mp-33018,Rb3Sb,0.4317
mp-36209,TmCuSe2,1.1678000000000002
mp-3667,P2S2O3,3.9739999999999998
mp-4025,TmNiSb,0.2526999999999999
mp-4081,TaCu3Se4,1.5980000000000003
mp-5033,Tl2SiF6,4.976
mp-505349,KCuPO4,0.1797000000000002
mp-510,TaO2,0.4284000000000008
mp-510436,InPd3,0.0970999999999993
mp-541462,SrTa4O11,3.5237
mp-541483,Rb3Sc(HO)6,3.5968
mp-542468,NdNiO2,0.15689999999999935
mp-549207,Li4CO4,4.1774
mp-554540,Li5ReO6,2.2088
mp-556242,YF3,5.617299999999998
mp-556346,Pr(IO3)3,3.3438000000000003
mp-556996,K2LiAlF6,7.2639
mp-557244,SiO2,5.1733
mp-557719,PbS,2.0786
mp-557954,GaN5O14,1.1872
mp-558219,SrLi(BS2)3,2.91
mp-558931,SiO2,4.5368
mp-560511,CaH2(CO2)2,4.6469
mp-567503,PbI2,2.4455
mp-568436,Sr7GeN6,1.1313
mp-568557,RbTaN2,2.4442000000000004
mp-568638,Y3CuSiSe7,1.5118
mp-569964,CdI2,2.3769
mp-570044,NbI4,0.4779999999999998
mp-570598,SrSi7N10,3.9087
mp-570697,CaC2,1.7534999999999998
mp-571636,InCl,1.4018000000000002
mp-5813,TaNO,2.2446
mp-6110,Sr2YSbO6,3.5121999999999995
mp-625112,H8PtO6,1.5662000000000005
mp-625113,H8PtO6,1.5297
mp-634,HgS,1.7068
mp-652471,Nb2Co(P2O7)3,1.443
mp-657176,YbBeF4,6.546200000000002
mp-686765,YTi2CdO6F,1.3491999999999995
mp-697146,Zn(HO)2,2.8582
mp-714960,VO2,0.3733
mp-7446,Rb2S3,1.3218
mp-753821,Pr3GaO6,3.6286
mp-754920,BaYF5,6.618500000000001
mp-755461,Dy3TaO7,3.3974
mp-755769,ZrO2,4.2234
mp-757042,LiSnPO4,3.0295
mp-757094,La2HfO5,3.7213
mp-760415,Li3SbS4,2.0975
mp-760506,PNO,3.9941
mp-761594,LiFe(SiO3)2,2.9944
mp-761624,LiFeSi3O8,3.2145
mp-761655,Li2CoP2O7,2.2452
mp-761676,Li2Co3SbO8,0.5744000000000002
mp-762631,LiFeSiO4,2.6321
mp-762686,LiFeSiO4,2.3802000000000003
mp-762860,LiCoSiO4,0.7364999999999999
mp-762870,Li2CrSiO4,1.6349
mp-764186,Mn6O5F7,0.14169999999999994
mp-764243,VOF3,2.7763
mp-766989,LiFe(Si2O5)2,3.0527999999999995
mp-773449,Fe4OF7,0.7885999999999997
mp-775106,Li2MnV3O8,1.2306
mp-776618,Li4VCr3O8,1.9194
mp-777474,LiFeF4,3.2260000000000004
mp-778296,LiNiPO4,3.5718000000000005
mp-778558,Li3MnV(PO4)3,0.15790000000000015
mp-778632,Fe6O7F5,0.22030000000000016
mp-778700,Li2FeF4,3.6247
mp-8289,SnF3,2.7195
mp-849686,V3(O2F)2,0.8214000000000001
mp-849983,LiVF4,2.1168
mp-850479,Mn3SnO8,1.3142999999999998
mp-850957,Na6Ti2O7,3.1128
mp-866141,TiFe2Si,0.4024999999999999
mp-866824,Ca2SnS4,1.2939000000000005
mp-867930,NaSi2BH2O7,4.0496
mp-9575,LiBeSb,0.8731
mp-961698,LiZnP,1.2970999999999997
mp-997161,CoAuO2,0.5743
mp-998358,MgAgF3,2.1127
mvc-13108,CoO2,1.3682
mvc-14219,Zn2Mo3O8,1.0863
mvc-15601,CaMnO2,2.1948000000000003
mvc-3731,CaCrF5,2.9997
mvc-4269,Zn3Ge3(BiO6)2,1.7311
mvc-5022,TeWO6,1.9937
mp-1001012,Sc2ZnS4,0.5765000000000002
mp-1001015,Y2ZnS4,0.6698
mp-1001016,Sc2ZnSe4,0.13960000000000014
mp-1001017,Zn(InSe2)2,0.03180000000000005
mp-1001021,Y2ZnSe4,0.23950000000000005
mp-1001024,Y2MgS4,1.7768000000000002
mp-1002568,MgMn2O4,0.5051999999999999
mp-1002569,MgMnO2,0.7773000000000003
mp-1002570,KMnO2,1.8889
mp-1002571,NaMn2O4,0.5661
mp-1002572,LiMnO2,0.8561000000000001
mp-1003311,CaMn2O4,1.2687999999999997
mp-1003312,KMn4O8,0.19310000000000005
mp-1003320,CaMn4O8,0.3224
mp-1003437,KMn2O4,0.9200000000000002
mp-1003548,CaMn2O4,1.6466
mp-1003636,NaMn4O8,0.08029999999999983
mp-1003641,MgMn2O4,1.1527
mp-1003735,MgMn2O4,1.1923999999999997
mp-1003923,CaMn4O8,0.5411999999999999
mp-1006118,P2S7,1.8908000000000005
mp-1011709,Cs2Se,1.8141000000000005
mp-1011834,Na2CoP2O7,3.0065
mp-1011860,Na2CoP2O7,3.0133
mp-1012835,SmCu(WO4)2,1.4499000000000004
mp-1013730,Cd5(S2Cl)2,1.7229
mp-1013750,Sn4SF6,2.4495000000000005
mp-1013760,Sn5(S2Cl)2,1.2428
mp-1015780,CrN2,0.2319
mp-1016092,Re2O7,2.6752
mp-1016119,NaMnO2,1.3261999999999996
mp-1016146,MgMn4O8,0.3767999999999998
mp-1018639,TiSnO3,1.0478999999999994
mp-1018888,PdCl2,0.9724
mp-1019510,AlPO4,5.4784000000000015
mp-1019511,AlPO4,5.5569000000000015
mp-1019512,AlPO4,5.2949
mp-1019513,AlPO4,5.6296
mp-1019514,AlPO4,5.4686
mp-1019535,BaAl2(SiO4)2,4.9061
mp-1019559,Ca2B2O5,4.692
mp-1019568,CaAl2SiO6,4.4797
mp-1019572,CaAl2SiO6,4.549800000000001
mp-1019573,CaAl2SiO6,4.6134
mp-1019580,CaMg(SiO3)2,4.5994
mp-1019583,CaAl2SiO6,4.2917999999999985
mp-1019586,CaAl2SiO6,4.5200000000000005
mp-1019587,CaAl2SiO6,4.602400000000001
mp-1019600,CeZr3O8,1.9004
mp-1019745,K2Ca3Si3O10,4.7468
mp-1019792,K2ZrSi2O7,4.4727999999999986
mp-1019808,KBe2B3O7,4.8329
mp-1019809,KBe2B3O7,4.949
mp-1020025,LiB3O5,6.1397
mp-1020027,Li4P2O7,5.5813000000000015
mp-1020110,Mg2SiO4,3.8214
mp-1020115,MgSiO3,4.5433
mp-1020117,MgSiO3,4.5456
mp-1020118,MgSiO3,4.558400000000002
mp-1020123,MgSiO3,4.4110999999999985
mp-1020124,MgSiO3,4.642100000000001
mp-1020125,MgSiO3,4.5985
mp-1020142,Na2B4O7,5.4224
mp-1020180,Na2SrMg(PO4)2,5.0055
mp-1020361,MgSiO3,4.5708
mp-1020599,Na5B(SO4)4,5.3015
mp-1020606,SrBe2(PO4)2,5.7435
mp-1020612,Sr2Si(S2O7)4,4.9136
mp-1020613,Rb5GaO4,1.8405
mp-1020620,Rb5Li6(BO2)11,4.3579
mp-1020621,RbBe2B3O7,4.865
mp-1020627,SrLiAl3N4,2.9731999999999994
mp-1020629,SrMgP3N5O2,4.1352
mp-1020632,RbB3O5,5.6294
mp-1020634,SrMgB2O5,4.6961
mp-1020637,Sr3BeB6O13,4.7944
mp-1020641,Rb2Ca2(SiO3)3,4.1345
mp-1020642,Sr3Y2(BO3)4,4.5074
mp-1020643,Rb3Zn(BO2)5,4.1752
mp-1020647,Sr2LiBeB3O8,4.7198
mp-1020650,Sr3Ge2(B3O8)2,4.4198
mp-1020656,RbY(PO3)4,5.4849
mp-1020657,NaSr(PO3)3,5.4018
mp-1020662,Rb4B2S4O17,5.1537000000000015
mp-1020666,Li4P2O7,2.8528
mp-1020671,Y(NO3)3,3.2704000000000004
mp-1020705,Rb2Li3B(P2O7)2,5.5484
mp-1020709,Sr5(Ga3O7)2,2.9142
mp-1027472,Mo3W(SeS3)2,0.5839999999999996
mp-1027473,Mo3W(SeS)4,0.5864999999999996
mp-1027474,MoWSe3S,0.7044000000000001
mp-1027483,Mo2Se3S,0.7892999999999999
mp-1027486,Te2MoWS2,0.16610000000000014
mp-1027492,MoSeS,0.6666000000000003
mp-1027510,MoW(SeS)2,0.5579999999999998
mp-1027511,Te2MoWSeS,0.014800000000000146
mp-1027524,Mo3W(SeS)4,0.7110000000000003
mp-1027525,MoS2,1.4639999999999995
mp-1027526,TeMoWSe2S,0.5397000000000003
mp-1027537,Mo3W(SeS3)2,0.5347000000000004
mp-1029274,TeMoWSeS2,0.20420000000000016
mp-1029281,Te3MoWSe,0.3289
mp-1029282,TeMoWSeS2,0.1634000000000002
mp-1029284,Te3MoWSe,0.3287999999999993
mp-1029321,Te2MoWSe2,0.06909999999999973
mp-1029329,Te2MoWSe2,0.0658000000000003
mp-1029379,Te2MoWSeS,0.1192000000000002
mp-1030682,Te3MoWSe,0.017500000000000068
mp-1030695,Te2MoWSe2,0.0882000000000005
mp-1030709,TeMoSe,0.043600000000000534
mp-1048165,BaBi4O7,2.0387000000000004
mp-1114106,Rb3InBr6,2.5162
mp-1114169,Rb2TlGaI6,0.5267
mp-1157336,Y2Co3(SiO4)3,2.5847
mp-1173765,Na2TiFe(PO4)3,2.2644
mp-1176437,MnF3,0.5284
mp-1186110,NpAlO3,0.016299999999999315
mp-1187516,YbSiO3,4.144199999999999
mp-1187714,UPdO3,0.042500000000000426
mp-1192867,U2SiO10,0.003599999999999992
mp-1195767,Ca5P3O13,0.5092000000000001
mp-1196764,Tb(PO3)3,5.6628
mp-1227589,Ca10P6O25,3.0803000000000003
mp-1228951,Al2CO,1.7551000000000003
mp-29252,Sn2ClF3,3.5512
mp-675475,Li2MnBr4,1.4742000000000002
mp-675748,Zn2GeS4,2.3046
mp-7562,TaTl3S4,2.5325
mp-761722,LiVCoO4,1.4663
mp-764695,Li2VOF4,1.5987
mp-767336,Li3MnPCO7,4.1084999999999985
mp-770865,Mn3SnO8,1.6699000000000002
mp-1020716,Rb3B(SO4)3,5.1274
mp-1020723,Sr2Ga2O5,2.9485
mp-1020725,Sr4Li2B12O23,4.6951
mp-1020739,PSN9,3.2106
mp-1020740,YBe2B5O11,5.3906
mp-600198,TeH21C7(NCl2)3,3.0381
mp-601211,SbH12C5N3Cl4,1.3255
mp-625249,P(HO)3,4.2766
mp-625347,H6N4O9,0.3096
mp-625365,H6N4O9,2.0445
mp-625391,NaH3O2,4.3036
mp-625457,VHO3,2.1077
mp-625641,H9BrO4,4.17
mp-625653,H9BrO4,4.0822
mp-625687,H9BrO4,3.5222999999999995
mp-625762,Al(HO)3,4.7202
mp-625774,Al(HO)3,4.8775
mp-625807,Al(HO)3,4.3037
mp-625841,Sr(H8O5)2,3.3502
mp-625860,Sr(H8O5)2,3.4038
mp-625961,H5IO6,2.0918
mp-626014,H5IO6,0.965
mp-626058,FeHO2,1.3496
mp-626094,Al(HO)3,4.3399
mp-626103,Al(HO)3,4.9129000000000005
mp-626112,H7NO6,3.3896
mp-626977,Si2H2O3,1.9921
mp-627114,Si2H2O3,2.0746
mp-627123,Si2H2O3,1.6023999999999998
mp-627141,Si2H2O3,1.8384000000000005
mp-627206,Si2H2O3,1.5458000000000005
mp-627314,Si2H2O3,1.7578
mp-627334,Si2H2O3,1.6959999999999995
mp-627349,Si2H2O3,1.3789000000000002
mp-647725,Os5C17O16,2.0169
mp-652776,Rb2V(PO4)2,2.8654
mp-653096,Se2S(NCl)2,1.7075999999999998
mp-653243,Ru4C14O13,1.9679
mp-653554,Sb2Te2O9,1.1992000000000005
mp-653561,Tl2GePbS4,1.9189
mp-653602,Os3C8SO8,1.4818
mp-653823,Re2Te4Cl22O,0.08639999999999992
mp-653891,NbTe2(SeI3)2,0.9449999999999998
mp-654165,Tl4Mo(CN)8,2.1969
mp-654202,Tl4Fe(CN)6,2.7414
mp-654301,Nb5P7O30,2.5668
mp-657300,RhSCl5,1.5875
mp-662588,SbRu2C6Cl7O6,2.4953000000000003
mp-662720,P2SN3Cl5O,3.7852
mp-662792,Os2C6SO6,1.9976
mp-662796,Os4C13(SO6)2,1.8985
mp-662802,Os6C19SO19,1.7127
mp-667366,PRu5C16(O5F)3,1.6922
mp-667397,PRu4C15O14F3,2.0336
mp-667400,Ir3(CO)8,1.7148
mp-667495,Os4C12SO12,2.1335
mp-667508,AgC3N3O2,2.3284
mp-690516,Sr2Co2O5,0.6818999999999997
mp-690529,V8Ni2O15,0.023900000000000254
mp-690548,NaMgFe(SO4)3,1.8197
mp-690566,NaCo2H3(SeO5)2,0.21950000000000006
mp-690568,V2Bi4O11,2.7696
mp-690672,K3NaFeCl6,0.5861999999999999
mp-690674,NdAsSe,0.18530000000000024
mp-690733,H2SO4,6.0968
mp-690866,LiMnPO4,3.4177
mp-695259,Ba3LiTi5(SbO7)3,2.3328
mp-695354,Na3Zr2Si2PO12,4.4556
mp-695436,H24C8S(NO2)2,3.8119
mp-695545,TaTi9Al3Zn23O48,1.6626000000000003
mp-695597,NaMg3Si4O11F,3.107
mp-695608,Rb8BaNaAl11Si13O48,2.0294
mp-695955,P3H11N4O9,5.1567
mp-695965,RbNa2P3(HO2)6,5.0053
mp-696085,Zn2P2H12O11,4.9444
mp-696088,Sb2H20(Cl4O3)3,1.7148
mp-696655,Sb2P3(HO3)3,3.9076
mp-697285,SrH10(SO4)2,4.1852
mp-698366,ZnH10C4(N2O3)2,4.5822
mp-704251,LiFePO4,3.5691000000000006
mp-704284,Li6Mn3P8O29,0.7561000000000001
mp-704299,FePO4,2.7404
mp-704417,Rb7U8V2ClO32,1.5465000000000002
mp-704467,Rb2U2WO10,1.8962
mp-704492,MnPO4,0.3601
mp-7045,RbGdS2,1.7435
mp-704540,LiMo2(PO4)3,1.582
mp-7046,RbDyS2,2.3216
mp-704623,Nd7V(Se2O)4,1.5176999999999996
mp-704630,Be3Fe4Si3TeO12,3.246900000000001
mp-704707,Cr2(MoO4)3,2.6785
mp-7048,Al2O3,4.4553
mp-704851,Fe2(MoO4)3,2.4941
mp-7049,ZrTlCuS3,0.6120999999999999
mp-704959,CrP2O7,0.6234
mp-705861,Rb10NaAl11Si13O48,2.1539
mp-743860,VZn2HO5,2.7972
mp-743919,VH16C4(NO4)3,3.0852
mp-743935,Zn2H10N12O5,2.0967
mp-744017,CoHCO3,1.3156
mp-744858,Ni5SbH17C15NO9,1.4675999999999998
mp-757077,Li2Cu2Si8O19,0.2105999999999999
mp-757084,Rb3SbO3,2.7821
mp-757092,NdAl11O18,2.899499999999999
mp-757106,LiSnPO4,2.6617
mp-757111,SbOF3,2.5195
mp-757127,LiSi3BiO8,3.0538000000000003
mp-757131,Sn(PO3)4,3.3535
mp-757138,Li2Sn(PO3)4,4.0198
mp-757173,Sb5O7F,3.0780000000000003
mp-757207,YH5S3O13,5.6236
mp-757336,Hf2N2O,2.0236
mp-757464,LiNb(PO3)4,0.17820000000000036
mp-757483,Y6O5F8,5.0221
mp-757652,H13S2N3O8,5.1189
mp-762889,Li3Co2(CO3)4,0.7120000000000001
mp-762895,Co2C2O7,0.7939
mp-762896,LiFe4(PO4)3,2.2118999999999995
mp-762954,Li3V3P8O29,0.6168
mp-762962,Li3V3P8O29,0.6566
mp-762963,Li4V3P8O29,1.0163
mp-765056,Li2VCr(P2O7)2,2.1774
mp-765059,Li2VCrP2(HO5)2,1.9831
mp-765067,LiVCrP2(HO5)2,1.3166
mp-765068,LiVFeP2(HO5)2,1.5067
mp-765071,LiVFeP2(HO5)2,1.4905
mp-765072,LiVCrP2(HO5)2,1.2776
mp-765075,LiVFeP2(HO5)2,1.5304999999999995
mp-765077,LiVCrP2(O4F)2,1.3355
mp-765090,LiMnF3,3.1095
mp-765103,LiMnVP2(HO5)2,0.8605
mp-765107,LiMnVP2(HO5)2,0.9541
mp-765109,LiVCrP2(HO5)2,1.2541999999999998
mp-765117,LiVCr(P2O7)2,1.3305999999999998
mp-765118,LiVCrP2(O4F)2,0.9590999999999998
mp-765123,LiVCrP2(HO5)2,1.4381
mp-765127,LiVFe(P2O7)2,1.5781
mp-765129,LiVF6,3.1556999999999995
mp-765137,Li5V3P8O29,0.7725
mp-765148,Li5V3P8O29,1.1982
mp-765150,LiSn4(PO4)3,2.647
mp-765155,Li5V3P8O29,0.5869
mp-765161,LiVFe(P2O7)2,1.5996
mp-765163,LiVCr(P2O7)2,1.3530000000000002
mp-765165,LiVCr(P2O7)2,1.3361999999999998
mp-765166,LiVFe(P2O7)2,1.6369999999999998
mp-765169,Li5V3P8O29,1.0693
mp-765173,LiVCrP2(O4F)2,0.8559000000000001
mp-765174,LiVCr(P2O7)2,1.2967
mp-765175,Li6V3P8O29,1.3188
mp-765176,LiVF4,1.8682
mp-765179,LiVFe(P2O7)2,1.5974
mp-765180,LiVCr(P2O7)2,1.2349
mp-765181,LiVCr(P2O7)2,1.3273
mp-765188,LiVFe(P2O7)2,1.5221
mp-765209,WOF4,5.0374
mp-765212,Li6V3P8O29,1.2873
mp-765213,Li5V3P8O29,0.9372
mp-765214,Li4V3P8O29,1.0122
mp-765246,Li9Fe4(BO3)8,0.003000000000000003
mp-765248,LiMn2F7,0.8189
mp-765251,Li4V3P8O29,0.7426
mp-765271,KFeO2,1.9209
mp-767959,LiCo2(PO4)2,0.6711999999999999
mp-767960,Na2FePCO7,2.3995
mp-767966,Na5Fe2P2(CO7)2,1.0246999999999995
mp-767969,SrLi4La15(CoO8)4,0.8319000000000001
mp-768027,Na2MnPCO7,0.7401000000000001
mp-768058,Na2MnPCO7,0.5078000000000001
mp-768295,Ba2YI7,3.0155000000000003
mp-768426,Ba2YI7,2.638
mp-771008,Ba3(BrO)2,2.472
mp-771040,Mg(IO3)2,3.5462
mp-771043,Y2Zr2O7,4.0648
mp-771054,V3(PO4)2,1.9159
mp-771170,Li3Zn2Fe19O32,1.2897999999999996
mp-772891,BaLaBr5,2.8966
mp-772967,Li2Cr3BiO8,0.3619999999999997
mp-773017,LiTi2(PO4)3,2.4389
mp-773020,LuP5O14,5.4098
mp-773024,LiCa2Nb3O10,2.0086000000000004
mp-773039,Li2Ti6Zn3O16,2.8489999999999998
mp-773040,As5Pb3S10,0.4681000000000002
mp-773069,ErTa3O9,2.6546000000000003
mp-773090,Nb6CdO16,1.5731
mp-773141,BaLaCl5,3.9903
mp-773157,Li9Cr12Co7O48,0.2583000000000001
mp-773158,Li3Fe2(PO4)3,2.4012
mp-774087,Na3CoO3,1.616
mp-774194,NaLi5Mn2P2(CO7)2,3.5457
mp-774265,NaLi2MnPCO7,3.4913
mp-774266,Na2LiMnPCO7,3.4319