task_id,pretty_formula,band_gap
mp-760470,Ce2UO6,0.0
mp-760680,Li2Fe12P7,0.0
mp-761290,Mn5O8,0.0
mp-761299,Li2CoBO4,1.4304000000000001
mp-761647,Li2Si3Ni2O9,3.2407999999999997
mp-762194,Sr12Fe8O27,0.0
mp-762217,Li2P4WO13,2.9840999999999998
mp-762506,SrNiO3,0.0
mp-763546,Mn(SbO3)2,0.0
mp-763920,Li6Fe5CoO12,1.5568999999999997
mp-763924,Li4Fe3CuO8,0.05169999999999986
mp-764003,LiCo2OF3,0.0
mp-769284,Dy2SeO2,2.1494999999999997
mp-769416,Zn9Fe15O32,0.0
mp-769418,Ti6Fe8O21,1.1071999999999997
mp-769430,Li4Co3Ni3(PO4)6,0.0
mp-769435,Li13Ni15O28,0.0
mp-769459,Na5Ni2P2(CO7)2,0.0
mp-769461,Na5Mn2P2(CO7)2,0.0
mp-769474,Na2MnPCO7,0.0
mp-769489,Na5Ni2P2(CO7)2,0.0
mp-769492,Na3Ni2P2(CO7)2,0.0
mp-769497,Li4TiV8O18,0.0
mp-770,DyCd,0.0
mp-770176,LiNi2(SO4)3,0.0
mp-7705,NbFeB,0.0
mp-770989,Li4Ni3SnO8,0.0
mp-771,MnAl,0.0
mp-7711,Ag2O,0.0
mp-772389,Ba9Rh8O27,0.0
mp-772471,Li6V3P8O29,0.9501999999999999
mp-772560,Li9V12Cr7O48,0.47099999999999986
mp-772690,Li3Mn4CoO8,0.0
mp-773440,Li2V3FeO8,0.0
mp-773783,Li6V3P8O29,0.9331999999999999
mp-773935,La15Mn16O48,0.0
mp-774063,V4O7F5,1.5213999999999999
mp-774102,LiNiO2,0.0
mp-774118,Li5V3P8O29,0.41779999999999995
mp-774190,Li5V3P8O29,0.9132000000000001
mp-775308,Li2Cr3TeO8,0.0
mp-778766,Li2Fe3WO8,0.0
mp-778995,Ti17(NO4)6,0.0
mp-779024,Ti17(NO4)6,0.22949999999999982
mp-779028,Li7Mn8(BO3)8,0.22949999999999982
mp-779127,Ti17(NO4)6,0.0
mp-779178,Mn12O7F17,0.0
mp-779179,Li5Mn6(BO3)6,0.0
mp-779180,Li32Mn3Cr13O48,1.0413999999999999
mp-779193,Ni2(SO4)3,0.0
mp-779225,Gd2(WO4)3,3.7925999999999997
mp-779268,Li8Mn5Fe3(BO3)8,3.0751999999999997
mp-78,Ge,0.0
mp-780820,CrO,0.0
mp-83,S,2.5657
mp-851054,Li7Sc9Fe(SiO3)20,0.0013999999999998458
mp-851253,Li4V3P8O29,0.43879999999999997
mp-851256,Li4V3P8O29,0.48729999999999996
mp-853176,Li3P7W5O29,2.2116999999999996
mp-863387,K6Al32O51,2.8209999999999997
mp-865937,KNpAgS3,0.0
mp-867,ErCd,0.0
mp-867673,Na3(Pt3O4)4,0.0
mp-875,AlOs,0.0
mp-881,NpSn3,0.0
mp-9117,Sr2YTlCu2O7,0.0
mp-973769,Hf6Al16Os7,0.0
mp-973850,HoGa3,0.0
mp-975868,Li3Al,0.0
mp-976277,Nd(NiBi)2,0.0
mp-976812,Pr2Zn17,0.0
mp-977,LuIn3,0.0
mp-977058,NpBO3,0.0
mp-977100,NiMoO3,0.0
mp-977107,NaRuO3,0.0
mp-977112,NaSrO3,0.0
mp-977117,NaTeO3,0.0
mp-977123,NaTiO3,0.0
mp-977152,NpTiO3,0.0
mp-977155,NpFe3,0.0
mp-977176,NaTcO3,0.0
mp-977184,NpTcO3,0.0
mp-977206,NaTm,0.0
mp-977212,NpMn3,0.0
mp-977224,PrAs3,0.0
mp-977275,LuBi3,0.0
mp-977310,OsAu3,0.0
mp-977370,EuOsO3,0.0
mp-977385,NpH3,0.0
mp-977389,CeCuO3,0.0
mp-977408,NbTlO3,0.11379999999999946
mp-977552,Be3Tc,0.0
mp-977573,HfH3,0.0
mp-977585,Zr3Tl,0.0
mp-977997,ZnMo3,0.0
mp-978009,HgOs,0.0
mp-978094,NdHo3,0.0
mp-978271,Mg3Al,0.0
mp-978273,Mg3Cd,0.0
mp-978281,Mg3Ga,0.0
mp-978282,Mg3Hg,0.0
mp-978286,Mg3Mn,0.0
mp-978287,Mg3Mo,0.0
mp-978294,Mg3Sn,0.0
mp-978303,Mg3Re,0.0
mp-978304,Mg3Ta,0.0
mp-978490,SiPdO3,0.0
mp-978494,SiSn3,0.0
mp-978495,SiB,0.0
mp-978498,Sc3Al,0.0
mp-978502,SmAs3,0.0
mp-978503,SmBeO3,0.0
mp-978506,SmSiO3,0.0
mp-978511,SmPa3,0.0
mp-978514,SmTm3,0.0
mp-978679,SmI,0.0
mp-978797,Sm3Hf,0.0
mp-978802,Sm3Pd,0.0
mp-978823,SmY3,0.0
mp-978842,SrCaO3,0.0
mp-978851,SrAsO3,0.0
mp-978855,Sn3B,0.0
mp-978862,SrAlO3,0.0
mp-978918,TbZr,0.0
mp-978926,SmGeO3,0.0
mp-978949,Sm3Ho,0.0
mp-978962,Tl3Fe,0.0
mp-978964,Th3Mg,0.0
mp-978969,TlAu3,0.0
mp-978994,TmPa3,0.0
mp-979009,Th3Be,0.0
mp-979011,TmZr,0.0
mp-979039,Th3Au,0.0
mp-979114,Th3U,0.0
mp-979253,Sm3Tm,0.0
mp-979269,Tl3Cd,0.0
mp-979272,TePdO3,0.0
mp-979285,Xe,6.2366
mp-979294,SrAgO3,0.0
mp-979412,Th3B,0.0
mp-979419,Dy3Y,0.0
mp-979423,YGa3,0.0
mp-979436,YOsO3,0.0
mp-979945,Yb3V,0.0
mp-979956,Yb3Mg,0.0
mp-979963,Yb3Ti,0.0
mp-979984,YbP3,0.0
mp-980,USi2,0.0
mp-980014,TmTh3,0.0
mp-980058,RbTbO3,0.0
mp-980063,YbDy3,0.0
mp-980082,YHo3,0.0
mp-980196,YbTm3,0.0
mp-985670,SnH16C4(NO4)3,0.24380000000000002
mp-989695,Cu,0.0
mp-989782,Cu,0.0
mp-990448,C,0.26139999999999997
mp-9960,Y3TlC,0.0
mp-9964,Ti3TlN,0.0
mp-997180,VCuO2,0.0
mp-997182,C,9.999999999998899e-05
mp-997590,La8MgAl7O24,0.0
mp-998786,TlPdF3,0.0
mp-998881,K,0.0
mp-999503,MoN,0.0
mvc-10882,AlMoO3,0.0
mvc-10883,YMnO3,0.0
mvc-11052,AlSnO3,0.0
mvc-11152,YSbO3,0.0
mvc-11155,AlNiO3,0.0
mvc-11162,NiN,0.0
mvc-11198,YTiO3,0.0
mvc-11224,AlVO3,0.0
mvc-11225,AlFeO3,0.0
mvc-11226,AlCoO3,0.0
mvc-11548,CrO3,0.0
mvc-11693,TiAlO3,0.0
mvc-11697,YCuO3,0.0
mvc-11732,YCoO3,0.0
mvc-14010,Zn2Sn3O8,1.7840000000000003
mvc-14467,Sr6Y2Co3(Cu2O7)3,0.0
mvc-14468,MgV6(FeO6)4,0.0
mvc-15002,Al4(FeO4)3,0.0
mvc-15011,Ca3Nd4Nb6(FeO14)2,0.0
mvc-15109,YCu3(WO4)6,0.21589999999999998
mvc-15129,Ba3Y5(CuO5)3,0.18920000000000003
mvc-15145,Zn3Cu10(TeO6)6,0.0
mvc-15173,Sr6YGa3(Cu2O7)3,0.0
mvc-15221,Sb2S5,0.0
mvc-15234,Y2Cr3O9,0.0
mp-1001844,HoN,0.0
mp-1007760,Ge,0.0
mp-1008472,CdSiP2,0.0
mp-1008681,Sc,0.0
mp-1009547,CsRbAs,0.0
mp-1009650,RbSb,0.0
mp-1009748,ScC,0.0
mp-1009826,TaCo,0.0
mp-1013542,Ca3BiN,0.0
mp-1013549,Ba3BiN,0.0
mp-1017109,CsMg6Nb,0.0
mp-1020020,Li8NO3,0.0
mp-1022514,BaMg6Zr,0.0
mp-1024054,Fe2SiS4,0.0
mp-1025045,TiGaPd,0.0
mp-1025063,LiAlPt,0.0
mp-1025252,Cs2MnCl4,1.7830000000000001
mp-1038831,Mg3Bi,0.0
mp-1039164,MgCd,0.0
mp-1042115,NiS2,0.0
mp-1045358,Li(CrS2)2,0.0
mp-1045362,Y(CrS2)2,0.0
mp-1047986,MgTi4O8,0.0
mp-1063607,CrPdO2,0.0
mp-1064865,Ba2SrNp,0.0
mp-1068510,In2Te3,0.0
mp-1073465,MgSi2,0.0
mp-1073638,MgSi2,0.0
mp-10767,CsK2Yb(PO4)2,0.0
mp-1078138,Mg6V,0.0
mp-1078370,CeBi2Au,0.0
mp-1079568,NaIrO3,0.0
mp-1080149,Yb(CuS)2,1.0754000000000001
mp-1080187,MnHgO3,0.0
mp-1080567,Sm(NiSb)2,0.0
mp-1080718,Dy(NiSb)2,0.0
mp-1086656,Tb(NiSb)2,0.0
mp-1087540,CdCu2SiTe4,0.29300000000000015
mp-1093903,AlVRe2,0.0
mp-1094048,Sr2TiFeO6,0.0
mp-1094145,Mg2Fe,0.0
mp-1094224,ZrSn3,0.0
mp-1094275,MgTi2,0.0
mp-1094316,SrMg2,0.0
mp-1094326,MgTi2,0.0
mp-1094637,MgGa,0.0
mp-1095547,ZrTi2Ni9,0.0
mp-1096547,Co2NiO4,0.0
mp-1096819,Sr2Mn2O5,0.0
mp-1099091,CeMg14Cu,0.0
mp-1099098,CeMg14Bi,0.0
mp-1099108,KLaMg14,0.0
mp-1099114,CaMg6Co,0.0
mp-1099234,CsMg6AlO8,0.0
mp-1099241,Mg6MnSnO8,0.0
mp-1099266,YMg6Ni,0.0
mp-1099269,BaYMg6,0.0
mp-1099277,LiMg6Fe,0.0
mp-1099284,LiMg6Co,0.0
mp-1099287,Mg6FeC,0.0
mp-1099330,CeMg6Ga,0.0
mp-1099334,CeMg6Sb,0.0
mp-1099687,K4Na4Nb3W5O24,0.0
mp-1099702,Sr2Ca6TiMn7O24,0.0
mp-1099747,Eu2Mn2O5,0.0
mp-1099750,Eu2V2O5,0.0
mp-1099822,Rb2Mo2O5,0.46250000000000036
mp-1099927,Eu2Ag2O5,0.0
mp-1100436,LiInSi,0.0
mp-1100777,VTeO3,0.0
mp-1101333,SrNdO3,0.0
mp-1102232,HCN,3.6232999999999995
mp-1112108,Cs2TlSbBr6,1.2294000000000003
mp-1161,LaSe,0.0
mp-11841,CeAg,0.0
mp-1275,SiMo3,0.0
mp-12766,Mg13Al14,0.0
mp-12781,ScAl2Ni,0.0
mp-16307,Sr2MgIrO6,0.0
mp-1688,ErAs,0.0
mp-16929,Pr3Si6N11,2.9903999999999993
mp-17008,CaTeO3,3.2937999999999996
mp-1748,NdS,0.0
mp-1779,YbTe,1.4687999999999999
mp-17806,Ta2V4Si5,0.0
mp-17981,Eu3IrO7,0.0
mp-1808,Ti2Ni,0.0
mp-19076,HoCrO4,0.24740000000000006
mp-19259,Sr4Al6WO16,3.5418999999999996
mp-19338,LiMoO2,0.0
mp-20000,Nd(NiSn)2,0.0
mp-20294,CeIn5Rh,0.0
mp-20652,PbF3,1.8821999999999999
mp-2104,UAs,0.0
mp-21055,CeGe2,0.0
mp-2109,CePt2,0.0
mp-21130,Np(CoSi)2,0.0
mp-21370,Ba2EuSbO6,0.0021999999999997577
mp-21419,CeMg2,0.0
mp-21531,U2Mn3Si5,0.0
mp-21551,In2(Ni7B2)3,0.024699999999999278
mp-21642,Mn3(Ni10P3)2,0.0
mp-21707,Er2CrS4,0.0
mp-21717,Fe7C3,0.0
mp-21861,Cu3TeO6,0.0
mp-22120,YRh3C,0.0
mp-22601,Ba2Ca2Cu3HgO8,0.0
mp-22685,TbInCu2,0.0
mp-22719,Ba2NdCu3O7,0.0
mp-2593,AlNi3,0.0
mp-27192,CsBe2F5,7.180899999999999
mp-27409,RbNiBr3,0.47230000000000016
mp-27702,InClO,2.3644999999999996
mp-27861,Ce(Re2Si)2,0.0
mp-2807,ScP,0.0
mp-28161,Na3P6N11,3.8178000000000005
mp-29101,Ce8SbPd24,0.0
mp-29166,Li3Ag2Ge3,0.0
mp-29392,Na2TiCl4,0.0
mp-29802,Sc(NiGe)6,0.0
mp-30841,UPd3,0.0
mp-31079,Ce3(Al3Ru)4,0.0
mp-34787,Ag7NO11,0.0
mp-4071,Er2(NiB2)3,0.0
mp-4651,SrTiO3,1.8487999999999998
mp-480,ErPt2,0.0
mp-505393,Li(Mo4O5)2,0.0
mp-510494,La5Sn3,0.0
mp-5181,LuSnPd2,0.0
mp-531949,Li23(MnAs)20,0.0
mp-540211,Cr2(PO4)3,0.0
mp-540342,FeP2O7,0.0
mp-541595,Co3W3N,0.0
mp-541712,Ce3Si6N11,0.0
mp-542681,Na3In2Ag,0.0
mp-542729,Dy3Ni13B2,0.0
mp-542758,Fe23B6,0.0
mp-550925,NaScAs2O7,3.4393000000000002
mp-555036,KCrF3,0.0
mp-556814,LiNdGeO4,4.058400000000001
mp-557327,Na3Li3Co2F12,1.8825999999999998
mp-558374,SiO2,5.5665000000000004
mp-558608,Nb2PbO6,2.5364999999999998
mp-561099,Ba4Os6ClO18,0.0
mp-567262,NiCN2,0.0
mp-567545,K(In3Au2)2,0.0
mp-567735,Nd5Si3,0.0
mp-568002,HfI3,0.0
mp-568225,TbB4,0.0
mp-568338,Sr2GeN2,0.0
mp-568562,Ni21(SnP3)2,0.0
mp-569661,YbInCu4,0.0
mp-569688,Rb,0.0
mp-570761,Mn2Os(CN)6,1.7792999999999999
mp-571066,K6Sn25,0.0
mp-571323,La12C6I17,0.0
mp-571339,Ba(CrAs)2,0.0
mp-574438,ThRu2,0.0
mp-579665,CeTl5Fe2(NO2)12,0.0
mp-5979,Mn3(P3Pd10)2,0.0
mp-600864,Ba3Nb2CoO9,0.0
mp-6051,K2Hg(CN)4,5.856999999999999
mp-614456,He,17.8914
mp-622214,Cs2Co2(MoO4)3,2.6641999999999997
mp-628842,Ti3Al2NiO,0.0
mp-631455,HfSi2Br,0.0
mp-631465,YRhW2,0.0
mp-631556,BaGe2B,0.0
mp-641587,Fe21(MoC3)2,0.0
mp-642649,BaH2O3,0.0
mp-643067,Mg3Sn,0.0
mp-643276,LiMg2H7Ru,3.1510000000000002
mp-647520,Sb2Pb2O7,0.0
mp-649627,Cu3SbS4,0.0
mp-649933,BaCeC2O6F,0.32489999999999997
mp-667353,Rb3Ce2(NO3)9,0.0
mp-672221,Co21(B3W)2,0.0
mp-672652,Ta6Co16Ge7,0.0
mp-672657,Hf6Co16Ge7,0.0
mp-672689,Hf6Co16Si7,0.0
mp-675122,Na2UI6,0.0
mp-675237,Na3GdI6,1.5032999999999999
mp-681,EuZn2,0.0
mp-685151,TiO,0.0
mp-686712,InAgSe2,0.0
mp-697038,Ba2H6Ru,1.8699000000000001
mp-752546,LiTi4O8,0.0
mp-752879,Li3Ti4O8,0.0
mp-752947,NaTiS2,0.0
mp-753853,U4BiO10,0.0
mp-754383,BaYb2O4,0.0
mp-755216,TmBiO3,2.4417999999999997
mp-758178,Li2Cu3(CO3)3,0.0
mp-761057,Sr5Nb4O15,2.8004000000000002
mp-761737,Li2MnCo3O8,0.0
mp-763740,LiFeSiO4,2.9768999999999997
mp-763750,Li3(CoO2)4,0.0
mp-763770,Li3Fe2Co3O10,0.0
mp-763954,Li4Co3O3F4,0.0
mp-764293,Li2VOF4,2.1898999999999997
mp-764366,LiCoCuO4,0.0
mp-764681,NaCr2O4,0.0
mp-765795,Li2Cr3CuO8,0.0
mp-765796,Li3Mn3CoO8,0.0
mp-7661,Li2RhF6,0.0
mp-767944,Li3Co3NiO8,0.0
mp-768613,Zr(MnSn)6,0.0
mp-769643,Y(Bi3O5)4,0.0
mp-771111,Li2Fe3NiO8,0.0
mp-771116,Li3Mn4CrO8,0.0
mp-771742,Co3BiO8,0.0
mp-771841,Mn3CuO8,0.0
mp-771847,Li2CuNiO4,0.0
mp-771980,Li3Ni5O8,0.0
mp-771983,Li3FeNi3O8,0.0
mp-773562,Fe2OF3,1.4065999999999999
mp-775190,Li2V3CuO8,0.0
mp-7755,Se,0.0
mp-775530,Li2Ti3FeO8,0.0
mp-7811,SrSO4,3.9294000000000002
mp-781180,Mn6O5F7,0.0
mp-781735,Na2FeO3,0.0
mp-849420,Li2Mn3CuO8,0.0
mp-849435,Mn3(O2F)2,0.0
mp-861506,Pr2ZnRu,0.0
mp-861624,LiLaHg2,0.0
mp-861662,CaZrRh2,0.0
mp-861736,LiSbPd2,0.0
mp-862372,Sc2RuRh,0.0
mp-862789,Er2ZnIr,0.0
mp-862894,AcSbAu2,0.0
mp-862931,ErSnRh2,0.0
mp-865102,NaLaTl2,0.0
mp-865149,PaAlRu2,0.0
mp-865175,LiEuTl2,0.0
mp-865209,TmHfOs2,0.0
mp-865230,TmMgRh2,0.0
mp-865364,DyTaRu2,0.0
mp-865368,Tm2NiOs,0.0
mp-865507,VSiRu2,0.0
mp-865547,Pm2CuSi,0.0
mp-865780,TiMn2Ga,0.0
mp-865875,Li3Ag,0.0
mp-865914,TiVTc2,0.0
mp-865920,YbPmZn2,0.0
mp-865921,MgAlIr2,0.0
mp-865936,LiSc2Tc,0.0
mp-865959,LiHo2Ru,0.0
mp-865966,BeAlIr2,0.0
mp-865978,YbPrHg2,0.0
mp-865983,TmCdHg2,0.0
mp-865988,LuCdHg2,0.0
mp-866000,CaLaCd2,0.0
mp-866008,Dy2TlAg,0.0
mp-866012,Hf2ZnRe,0.0
mp-866020,YbSmHg2,0.0
mp-866024,Be2RhAu,0.0
mp-866071,MgTaOs2,0.0
mp-866085,Tm2IrRh,0.0
mp-866087,MgSiRh2,0.0
mp-866103,Ac2MgSn,0.0
mp-866111,Ho2IrRu,0.0
mp-866117,HfZnAu2,0.0
mp-866119,Tm2RuPt,0.0
mp-866120,Tm2TlAg,0.0
mp-866121,V3Os,0.0
mp-866124,LuTc2W,0.0
mp-866126,DyNbRu2,0.0
mp-866150,LiSm2Os,0.0
mp-866166,Y2PdRu,0.0
mp-866172,HoMg3,0.0
mp-867110,Sc2CoOs,0.0
mp-867206,LiCd2Pt,0.0
mp-867370,Pr3Sn5Au6,0.0
mp-867812,LiAlNi2,0.0
mp-867813,LiLa2Os,0.0
mp-867817,LaTlAg2,0.0
mp-867820,LiAlPd2,0.0
mp-867913,LiHo2Ir,0.0
mp-867915,ScGaCo2,0.0
mp-9489,NaSmTiO4,2.4267999999999996
mp-972069,Ti3Ga,0.0
mp-972077,TcGe3,0.0
mp-972650,SmDyRh2,0.0
mp-972657,SmBiAu2,0.0
mp-973444,K3V,0.0
mp-973480,Nd(BRh)4,0.0
mp-973528,K3Si,0.0
mp-973631,Lu2AlRu,0.0
mp-973824,LiHg3,0.0
mp-974371,Rh3Br,0.0
mp-974789,Rb3Sn,0.0
mp-974832,Rb3Pb,0.0
mp-974970,Rb3Mn,0.0
mp-975019,Rb3Cd,0.0
mp-976031,NaAc,0.0
mp-976982,Li2Mg,0.0
mp-977361,ZnFeRh2,0.0
mp-977363,Ta2TcMo,0.0
mp-978522,SmYIr2,0.0
mp-978805,SmLuHg2,0.0
mp-980940,Ti3N,0.0
mp-984102,Fe3H,0.0
mp-985438,Ce2CdHg,0.0
mp-985475,Fe3Mo,0.0
mp-985540,Ac3La,0.0
mp-998890,Cu,0.0
mp-998972,TiAu,0.0
mvc-11235,BiN,0.0
mvc-11777,Al(BiO3)3,0.0
mvc-12561,Zn(NiO2)2,0.0
mvc-13217,V4ZnO8,0.0
mvc-15176,CaLa2BiO6,0.0
mvc-15392,BiO2,0.0
mvc-4236,Mg3Ag2(GeO4)3,0.43069999999999986
mp-1006099,Lu(BRh)4,0.0
mp-1006277,CeGa4Co9,0.0
mp-1006282,Nd7Co3,0.0
mp-1006328,LiCeSn,0.0
mp-1018739,KMnBi,0.0
mp-1019788,K4Al3(SiO4)3,0.0
mp-1022697,YHfMg6,0.0
mp-1022923,YMg6Zr,0.0
mp-1025567,NbCl2O,0.9081000000000001
mp-1029932,LiVN2,1.2871000000000001
mp-1043180,MgV4(CuO4)3,0.0
mp-1045003,Y2(CuO2)3,0.0
mp-1074,RbSi,1.3499999999999999
mp-10990,Al4CN3O,0.15329999999999977
mp-1111868,KAuF3,0.0
mp-1173936,Li3Mn2CoO6,0.0
mp-1174186,Li4Mn3CoO8,0.0
mp-1174534,Li4MnCo2O7,0.40439999999999987
mp-1176793,Li9Mn12Ni3O32,0.0
mp-11773,Nd3GaO6,3.6475999999999997
mp-1178510,BaPdO3,0.0
mp-1179682,RbS,0.0
mp-1183115,AcAlO3,4.104500000000001
mp-1183164,AuC,0.0
mp-1183222,AgPd,0.0
mp-1183233,AgRh,0.0
mp-1183407,Be3Si,0.0
mp-1183426,BeCuO3,0.0
mp-1183480,Ca3Lu,0.0
mp-1183572,CaI,0.0
mp-1183624,Cd3Ni,0.0
mp-1183913,CsPdO3,0.0
mp-1183974,GaBi3,0.0
mp-1183980,GaGeO3,0.0
mp-1183984,Cu3Te,0.0
mp-1183995,GaCu3,0.0
mp-1184011,Cu3Ag,0.0
mp-1184206,GaSiO3,0.0
mp-1184209,GaPd3,0.0
mp-1184210,Ga3Pt,0.0
mp-1184225,Fe3W,0.0
mp-1184329,Eu3Cr,0.0
mp-1184545,HPt3,0.0
mp-1184564,Hf3Ag,0.0
mp-1184695,Ho3Er,0.0
mp-1184885,HoZr,0.0
mp-1184947,KCoO3,0.0
mp-1185044,LaPr3,0.0
mp-1185122,LaSnO3,0.0
mp-1185202,KPb3,0.0
mp-1185343,LiCe3,0.0
mp-1185416,LiSb3,0.0
mp-1185790,Mg3Sc,0.0
mp-1186001,MnZnPd2,0.0
mp-1186046,Na3Mg,0.0
mp-1186101,NaAgO3,0.0
mp-1186118,NaCaO3,0.0
mp-1186324,NdTaO3,0.0
mp-1186523,Pm3Nd,0.0
mp-1186564,Pm3Gd,0.0
mp-1186578,Pm3Np,0.0
mp-1186634,PmSm,0.0
mp-1186658,PmTh3,0.0
mp-1186661,PuCl,0.0
mp-1186797,PuInO3,0.0
mp-1186799,PuPbO3,0.0
mp-1186897,RbRhO3,0.0
mp-1186917,SbAu3,0.0
mp-1187023,Sn3Ge,0.0
mp-1187052,Th3Pa,0.0
mp-1187067,Sn3Te,0.0
mp-1187089,Sr2O3,0.0
mp-1187147,SrErO3,0.0
mp-1187226,SrReO3,0.0
mp-1187232,Sr3U,0.0
mp-1187341,TbHf,0.0
mp-1187347,TbMgO3,0.0
mp-1187366,TbRu3,0.0
mp-1187389,TbVO3,0.0
mp-1187412,Th(NiH)2,0.0
mp-1187502,Tl3Bi,0.0
mp-1187566,TlZn3,0.0
mp-1187767,USiO3,0.0
mp-1187777,Xe,6.1517
mp-1187784,UBO3,0.0
mp-1187794,UBr,0.0
mp-1187983,ZnRe,0.0
mp-1188005,Zr3S,0.0
mp-1188310,Tm5Ge3,0.0
mp-1194935,Sm3Si11Pt23,0.0
mp-1202999,Lu3Si13Os4,0.0
mp-1206138,Yb3PbC,0.0
mp-1206367,Ce3AlO,0.0
mp-1206684,TiSnRh,0.0
mp-1206698,CeCdCu,0.0
mp-1206700,LaNiAs,0.0
mp-1206710,LaO,0.0
mp-1206718,YNiAs,0.0
mp-1206805,Mn3SbN,0.0
mp-1206996,La3AlO,0.0
mp-1207190,SmBiPd,0.0
mp-1207664,YbBeNF6,2.2762000000000002
mp-1207830,Y(Fe2Ge)2,0.0
mp-1208642,SrBeGe,0.0
mp-1210814,NaPO6,0.9914999999999999
mp-1210986,Li14Be6(BO3)9,0.0
mp-1213408,CsYb(MoO4)2,0.0
mp-1214002,Ce3(P3Pd10)2,0.0
mp-1214540,Ba5Yb2ZrAl2O13,0.0
mp-1215222,ZrNbC2,0.0
mp-1216070,Y2Mn3Co,0.0
mp-1216437,V6GeOs,0.0
mp-1216717,TiVCN,0.0
mp-1217014,TiAu,0.0
mp-1217020,TiAlFe2,0.0
mp-1217074,Ti2HC,0.0
mp-1217428,Tc3Pt,0.0
mp-1217586,TbCuSi,0.0
mp-1217896,TaPd,0.0
mp-1217906,TaOs3,0.0
mp-1217979,SrSiGe,0.0
mp-1219485,ReMo,0.0
mp-1219540,Re3Pt,0.0
mp-1219898,PrMnIn,0.0
mp-1219920,PdAu,0.0
mp-1221629,MnGaRh2,0.0
mp-1221898,Mn2GeRu,0.0
mp-1222002,MgB3,0.0
mp-1222071,MgCoNi,0.0
mp-1222888,LaCuSi,0.0
mp-1223633,InSb,0.0
mp-1223742,HoCuGe,0.0
mp-1223785,HoEr,0.0
mp-1224030,InCuO3,0.0
mp-1224750,GdDy,0.0
mp-1225129,EuPPt,0.0
mp-1225177,Fe2Si,0.0
mp-1225998,CoPt,0.0
mp-1226026,CoRh,0.0
mp-1226447,Co3Ir,0.0
mp-1226627,CeMg2Ni,0.0
mp-1226678,Cs3KZr2(Si3O10)2,0.9792000000000001
mp-1226706,CdNiO2,0.0
mp-1226726,CdAg,0.0
mp-1227279,Be4AlNi,0.0
mp-1228434,Ba2LaTlCu2O7,0.0
mp-1228815,AlRe,0.0
mp-12317,SrCN2,3.2055999999999996
mp-1237488,ScV2O2,0.0
mp-1237725,UTeP,0.0
mp-1238797,MoS2,0.0
mp-1239139,TaCr3(CuS4)2,0.0
mp-1239203,MoS3,0.0
mp-13863,BaGeO3,3.5403000000000002
mp-14743,Ba3WN4,1.9649999999999999
mp-15572,Na3Ca3AlAs4,0.9449000000000001
mp-15704,BeSiN2,3.562099999999999
mp-17350,La2TeO6,2.9623999999999997
mp-17771,NaMg4(AsO4)3,3.1921999999999997
mp-18126,Tb3CuSnSe7,1.0152999999999999
mp-19848,PrCuSb2,0.0
mp-20692,MnGeN2,0.21260000000000012
mp-23719,BeAlH5,3.2039999999999997
mp-2765,PuB,0.0
mp-27726,SO2,2.8367999999999998
mp-27852,Hg3(TeCl)2,1.9124999999999999
mp-29145,H3N,4.3286999999999995
mp-29930,Na5LiN2,0.18620000000000003
mp-35795,BiPbF5,4.297000000000001
mp-43188,Na8BeAl4Si7(BrO12)2,3.8867999999999996
mp-4730,Ga2HgSe4,0.9168000000000001
mp-510519,Rb2V3O8,2.0559999999999996
mp-542942,ZnCdC4(SeN)4,3.0604999999999998
mp-554150,Nd3CuGeS7,1.6757999999999997
mp-561224,TeO2,2.9779999999999998
mp-561446,BaCa(GaO2)4,3.0641999999999996
mp-583071,CaAlH5,3.3518999999999997
mp-625094,Cd(HO)2,1.6945000000000001
mp-625269,FeHO2,1.9550999999999998
mp-625284,FeHO2,1.759
mp-625409,Sm(HO)3,3.7581999999999995
mp-625414,Mn2HO4,0.15920000000000023
mp-625445,H2SO4,5.577
mp-625452,Pr(HO)3,3.8120000000000003
mp-625468,Lu(HO)3,5.024900000000001
mp-625477,Eu(HO)3,0.0
mp-625635,H4N2O3,0.0
mp-625837,Be(HO)2,5.410900000000001
mp-631388,CdIrRu,0.0
mp-653811,Sr2NdCu3(PbO4)2,0.0
mp-6853,Ca3TaGa3(SiO7)2,3.9122000000000003
mp-691133,CrHO2,2.8263999999999996
mp-696132,Zr5ZnPb3,0.0
mp-696288,LiH3(SeO3)2,4.256399999999999
mp-696946,BaSn2(HO2)2,2.1031999999999997
mp-703260,PbWO4,3.6216000000000004
mp-753277,LiAgF2,1.2066999999999999
mp-756500,Sr2CaI6,3.7062999999999997
mp-757102,Sr2RhO4,0.0
mp-757165,Li5FeS4,0.0
mp-757177,Li6CuS4,0.0
mp-762906,Li2Fe3CoO8,0.0
mp-762914,LiNiPO4,3.5079000000000002
mp-762931,Li(FeO2)3,0.0
mp-763784,LiMn2F6,0.9550000000000001
mp-767285,Li6MnFeP2(CO7)2,3.6201000000000003
mp-767288,Li6VCrP2(CO7)2,1.9883000000000002
mp-767964,Li2Fe(SiO3)2,3.314
mp-767980,Li3Fe3NiO8,0.0
mp-767989,Li2FeNi3O8,0.0
mp-767993,Li2Fe(CO3)2,3.5150000000000006
mp-768000,Li2Cr(CO3)2,3.381
mp-770272,RbFeO2,2.0450999999999997
mp-770433,Ag11Hg9,0.0
mp-771264,Na3ZnPCO7,3.769
mp-771341,Li3BePCO7,5.353800000000001
mp-772840,Sm2Ge2O7,3.6725000000000003
mp-772968,LiTlPHO3,3.9939000000000004
mp-774086,Li2Mn2FeO6,0.0
mp-774095,Li2Mn2CuO6,0.23470000000000013
mp-774111,Mn3OF5,0.0
mp-774123,Li2Mn3TeO8,0.0
mp-774135,LiFeNiO4,0.0
mp-774138,V2O3F,1.0314999999999999
mp-774144,Li(WO3)2,0.0
mp-774172,Mn3OF5,0.0
mp-774174,NaMn2O4,0.0
mp-774557,Er2TeO6,3.0126999999999997
mp-775395,Mn3Cr(PO4)4,0.18399999999999972
mp-776816,Li2FeF5,3.6654999999999998
mp-777904,Li2Ti3CrO8,0.0
mp-778602,Ba3GeO5,2.9101999999999997
mp-778705,Fe2OF3,1.6320000000000001
mp-779070,Li2NiP2O7,4.312200000000001
mp-782714,LiV2(OF)3,0.9438999999999997
mp-849060,VS2,0.0
mp-849083,Cr2S3,0.0
mp-849098,VS2,0.0
mp-849219,V3(O2F)2,0.49650000000000016
mp-849244,Li2FeOF3,1.9779000000000002
mp-849525,Li2Fe3O3F5,1.9627000000000001
mp-862787,AlInSe3,1.6095999999999995
mp-866943,Ca2SnS4,1.6421000000000001
mp-867218,SmAgHg2,0.0
mp-9442,Dy3Fe2Si3,0.0
mp-961699,NaMgP,0.0
mp-961705,TiPtPb,0.0
mp-971661,Si,1.3309000000000006
mp-979932,Sr3SiO5,3.7463999999999995
mp-999083,Ti2MnSn,0.0
mvc-3489,Y2Fe2O7,0.0
mp-600001,SiO2,5.491
mp-600232,NpNiSn,0.0
mp-600663,CeGaNi,0.0
mp-601195,CuO2,0.0
mp-601846,Yb2In8Ir,0.0
mp-602393,La4Ni3Pb4,0.0
mp-603694,Si3N4,0.0
mp-603902,Sr5Mn5O13,0.0
mp-603912,Nd2MoC2,0.0
mp-604325,K,0.0
mp-605027,Mg5Pd2,0.0
mp-605252,DyGaCo,0.0
mp-605650,Ba5Ga5Pb,0.0
mp-605839,Li2B2Rh3,0.0
mp-605867,CeIn7Pt2,0.0
mp-605878,La4MgRu,0.0
mp-625718,Y(HO)3,3.8644999999999996
mp-626087,Mo2HO6,0.0
mp-626110,Mo2HO6,0.0
mp-626169,U(HO2)2,1.8922999999999999
mp-626173,HoHO2,3.9497999999999998
mp-626411,In(HO)3,2.7771999999999997
mp-626497,Al(HO)3,4.697299999999999
mp-626512,FeHO2,1.9233999999999998
mp-626724,LaHO2,3.8390000000000004
mp-626787,VHO2,1.5267999999999997
mp-626791,VHO2,1.4847000000000001
mp-626885,U(HO2)2,1.8953000000000002
mp-627640,Eu(ClO4)3,0.0
mp-628588,Fe4Si2Sn7O16,0.0
mp-643451,BaMg2H8Ru,1.9106999999999998
mp-643656,Li5H9Pt2,0.0
mp-643712,Rb3MgH5,3.0454999999999997
mp-643788,Na2Sn(HO)6,3.2561999999999998
mp-643912,Ca5Ge3H,0.0
mp-643941,CaAl2Si(HO2)4,4.690799999999999
mp-644129,KNiPH2O5,4.0043999999999995
mp-644318,NaV3H6(SO7)2,2.0629999999999997
mp-645130,Pr4MgCo,0.0
mp-645166,Tb(GaFe)6,0.0
mp-645662,Ba14Na14LiN6,0.0
mp-645700,Ba14Na11Li5N6,0.0