task_id,composition,band_gap
mp-1213111,Dy2Si3Pd,0.0
mp-1191528,Dy2Si3Rh,0.0
mp-1189145,Dy2Si4Mo3,0.0
mp-15205,Dy2Si5Ni3,0.0
mp-1188825,Dy2Si5Rh3,0.0
mp-1106269,Dy2Sn5Rh3,0.0
mp-1105466,Dy2SnAu2,0.0
mp-558960,Dy2Tc2O7,0.0
mp-1103932,Dy2Te5,0.0
mp-1225647,Dy2Ti12(CuO4)9,0.0
mp-30625,Dy2Tl,0.0
mp-866008,Dy2TlAg,0.0
mp-1184105,Dy2TlHg,0.0
mp-1184139,Dy2TlIn,0.0
mp-1184062,Dy2TlZn,0.0
mp-1184129,Dy2Y2O5,0.0
mp-30964,Dy2Zn17,0.0
mp-1184095,Dy2ZnAg,0.0
mp-865156,Dy2ZnGa,0.0
mp-984627,Dy2ZnHg,0.0
mp-984544,Dy2ZnIr,0.0
mp-865004,Dy2ZnOs,0.0
mp-1184070,Dy2ZnPt,0.0
mp-1184107,Dy2ZnRh,0.0
mp-865017,Dy2ZnRu,0.0
mp-22808,Dy3(AgSn)4,0.01959999999999961
mp-1225412,Dy3(Al2Fe)2,0.0
mp-1213200,Dy3(Al3Os)4,0.0
mp-1195540,Dy3(Al3Ru)4,0.0
mp-16807,Dy3(AlNi3)2,0.0
mp-1213577,Dy3(Co2Sn)4,0.0
mp-1079307,Dy3(CoGe2)2,0.0
mp-22039,Dy3(CuGe)4,0.0
mp-12732,Dy3(CuSi)4,0.0
mp-20844,Dy3(CuSn)4,0.0
mp-1225660,Dy3(Ga2Cu)2,0.0
mp-1191661,Dy3(GaNi3)2,0.0
mp-645630,Dy3(Ge3Pt2)2,0.0
mp-1213229,Dy3(GeRh)2,0.0
mp-1207275,Dy3(In2Co)2,0.0
mp-1213204,Dy3(P3Pd10)2,0.0
mp-1213109,Dy3(SbPd2)4,0.0
mp-1213199,Dy3(Si3Pd10)2,0.0
mp-1202318,Dy3(Si3Ru)4,0.0
mp-1191905,Dy3(SiNi3)2,0.0
mp-1184122,Dy3Al,0.0
mp-571624,Dy3Al2,0.0
mp-1196242,Dy3Al2(Ni2H3)3,0.0
mp-29676,Dy3AlC,0.0
mp-1191595,Dy3AlCoS7,0.0
mp-1191911,Dy3AlFeS7,0.0
mp-1017557,Dy3AlN,0.0
mp-1192283,Dy3AlNi8,0.0
mp-1184133,Dy3As,0.0
mp-1184068,Dy3Bi,0.0
mp-1225336,Dy3Bi(Ru2O7)2,0.0
mp-1213387,Dy3C4,0.0
mp-646392,Dy3Co,0.0
mp-30907,Dy3Co11B4,0.0
mp-758934,Dy3Co29(Si2B5)2,0.0
mp-1212856,Dy3Co2Si3,0.0
mp-1197092,Dy3Co4Ge13,0.0
mp-20703,Dy3Co6Sn5,0.0
mp-1213597,Dy3Cu20Sb11,0.0
mp-1184100,Dy3Er,0.0
mp-9442,Dy3Fe2Si3,0.0
mp-1212851,Dy3Fe2Si7,0.0
mp-1192098,Dy3FeB7,0.0
mp-1205197,Dy3Ga2,0.0
mp-1196980,Dy3Ga5,0.0
mp-1104443,Dy3Ga8Ir3,0.0
mp-1104487,Dy3Ga8Rh3,0.0
mp-1104450,Dy3Ga9Pt2,0.0
mp-20922,Dy3GaC,0.0
mp-1192256,Dy3GaCoS7,0.0
mp-1203111,Dy3Ge13Ir4,0.0
mp-1204800,Dy3Ge13Os4,0.0
mp-1204450,Dy3Ge13Rh4,0.0
mp-1197267,Dy3Ge13Ru4,0.0
mp-1189819,Dy3Ge3Ru2,0.0
mp-655448,Dy3Ge4,0.0
mp-505577,Dy3Ge5,0.0
mp-1191600,Dy3GeO8,0.0
mp-1184059,Dy3Hg,0.0
mp-1184065,Dy3Ho,0.0
mp-20786,Dy3In,0.0
mp-1212972,Dy3In5,0.0
mp-31056,Dy3InN,0.0
mp-1105615,Dy3Ir,0.0
mp-1204219,Dy3Ir2,0.0
mp-1184174,Dy3Lu,0.0
mp-1225309,Dy3Mg,0.0
mp-21038,Dy3Mn3Ga2Si,0.0
mp-542729,Dy3Ni13B2,0.0
mp-1197227,Dy3Ni19B10,0.0
mp-7281,Dy3Ni2,0.0
mp-18399,Dy3Ni7B2,0.0
mp-1213457,Dy3NiGe2,0.0
mp-1225399,Dy3NiPd2,0.0
mp-19818,Dy3PbC,0.0
mp-12543,Dy3Pd2,0.0
mp-1104399,Dy3Pd4,0.0
mp-1104664,Dy3Pt4,0.0
mp-1190970,Dy3ReB7,0.0
mp-555247,Dy3ReO7,0.0
mp-1205201,Dy3Rh2,0.0
mp-556095,Dy3S4,0.0
mp-1095468,Dy3Sc2S7,0.0
mp-571400,Dy3Se4,0.0
mp-1200984,Dy3Si11Pt23,0.0
mp-1192305,Dy3Si2Ni,0.0
mp-19899,Dy3SnC,0.0
mp-22513,Dy3TlC,0.0
mp-1184064,Dy3Tm,0.0
mp-1184098,Dy3V,0.0
mp-1184145,Dy3Y,0.0
mp-1104161,Dy3Zn11,0.0
mp-1183825,Dy3Zr,0.0
mp-1212812,Dy4C5,0.0
mp-571376,Dy4CdCo,0.0
mp-1212892,Dy4CdIr,0.0
mp-1212939,Dy4CdPd,0.0
mp-1212919,Dy4CdPt,0.0
mp-1213098,Dy4Co,0.0
mp-1225451,Dy4Co3,0.0
mp-1200694,Dy4CoB13,0.0
mp-1205385,Dy4CrGa12,0.0
mp-1225384,Dy4CrSe7,0.0
mp-1225338,Dy4Cu5P7,0.0
mp-1225912,Dy4Cu7Sn11,0.0
mp-1213260,Dy4Fe,0.0
mp-1226156,Dy4Fe28BC,0.0
mp-1226028,Dy4Fe29Si5,0.0
mp-1225442,Dy4FeSe7,0.0
mp-1189987,Dy4Ga12Fe,0.0
mp-1189966,Dy4Ga12Ni,0.0
mp-1188432,Dy4Ga12Pd,0.0
mp-1212792,Dy4Ga12Pt,0.0
mp-1191222,Dy4Ga16Co3,0.0
mp-1185142,Dy4Ga21Ni10,0.0
mp-1105803,Dy4Ge6Ir7,0.0
mp-1181515,Dy4Ge6Rh7,0.0
mp-20748,Dy4In(NiGe2)2,0.0
mp-1213615,Dy4In20Ni11,0.0
mp-1201054,Dy4In5S13,0.0
mp-571230,Dy4InRh,0.0
mp-1205839,Dy4Mg3Co2,0.0
mp-1212913,Dy4MgCo,0.0
mp-1212923,Dy4MgIr,0.0
mp-1212902,Dy4MgNi,0.0
mp-571208,Dy4MgRh,0.0
mp-1212975,Dy4MgRu,0.0
mp-1213216,Dy4Mn,0.0
mp-1213233,Dy4Ni,0.0
mp-569213,Dy4Ni12Sn25,0.0
mp-1190673,Dy4Ni13C4,0.0
mp-1225392,Dy4Ni3Bi8,0.0
mp-1203435,Dy4NiB13,0.0
mp-1212808,Dy4Rh,0.0
mp-1225322,Dy4Te7,0.0
mp-1197115,Dy5(Ge5Ir2)2,0.0
mp-1202174,Dy5(Ge5Rh2)2,0.0
mp-1212911,Dy5(GeSb)2,0.0
mp-607124,Dy5(In2Ni)2,0.0
mp-766367,Dy5(ReO6)2,0.0
mp-1198889,Dy5(Si5Ir2)2,0.0
mp-1212823,Dy5(SiB4)2,0.0
mp-1212829,Dy5(SiSb)2,0.0
mp-1226406,Dy5(Sn3Os)6,0.0
mp-1225803,Dy5(Sn3Rh)6,0.0
mp-18628,Dy5B2C5,0.0
mp-1212938,Dy5B3O13,0.0
mp-31464,Dy5Bi3,0.0
mp-1181507,Dy5BiAu2,0.0
mp-1212882,Dy5BiPd2,0.0
mp-1212863,Dy5BiPt2,0.0
mp-669497,Dy5Cl11,0.0
mp-1225778,Dy5Co19P12,0.0
mp-1212904,Dy5Co2Bi,0.0
mp-510593,Dy5CoSb2,0.0
mp-1213290,Dy5CuPb3,0.0
mp-542342,Dy5Ga3,0.0
mp-1105737,Dy5Ge3,0.0
mp-1181755,Dy5Ge3B,0.0
mp-568144,Dy5In3,0.0
mp-1200226,Dy5Ir3,0.0
mp-1183822,Dy5Mg,0.0
mp-672670,Dy5Mg24,0.0
mp-1200833,Dy5Mg5Al12(Fe2Si3)2,0.0
mp-1212912,Dy5Ni2Bi,0.0
mp-9353,Dy5Ni2Sb,0.0
mp-640372,Dy5NiPb3,0.0
mp-1225469,Dy5P12Ir19,0.0
mp-8760,Dy5P12Ru19,0.0
mp-1189839,Dy5Pt3,0.0
mp-1202228,Dy5Pt4,0.0
mp-30622,Dy5Ru2,0.0
mp-1103125,Dy5S7,0.0
mp-1181498,Dy5SbAu2,0.0
mp-1212864,Dy5SbPd2,0.0
mp-1212858,Dy5SbPt2,0.0
mp-1225385,Dy5Sc5(Si5Ir2)4,0.0
mp-2836,Dy5Si3,0.0
mp-13237,Dy5Si3B,0.0
mp-542828,Dy5Si4,0.0
mp-579518,Dy5Sn11,0.0
mp-574085,Dy5Sn13,0.0
mp-778274,Dy5Ti5O17,0.0
mp-1181553,Dy5Tl3,0.0
mp-1198172,Dy5Zr3(Ni4As3)4,0.0
mp-1225417,Dy6Ag(GeS7)2,0.0
mp-1198914,Dy6Al43Cr4,0.0
mp-1213242,Dy6Al43V4,0.0
mp-1200455,Dy6Al43W4,0.0
mp-1194170,Dy6Al7Cu16,0.0
mp-1213323,Dy6Cl13,0.0
mp-1213286,Dy6Co2Sn,0.0
mp-1079700,Dy6CoTe2,0.0
mp-1194041,Dy6Cu23,0.0
mp-540604,Dy6Fe16O,0.0
mp-1194186,Dy6Fe23,0.0
mp-1205871,Dy6FeBi2,0.0
mp-4189,Dy6FeSb2,0.0
mp-1225770,Dy6Ga19Pt3,0.0
mp-1189487,Dy6GaNi2,0.0
mp-1213291,Dy6InCo2,0.0
mp-1192635,Dy6Mn23,0.0
mp-1207016,Dy6MnBi2,0.0
mp-1106355,Dy6Ni2Sn,0.0
mp-567159,Dy6Ti4Al43,0.0
mp-1193674,Dy6Zn23,0.0
mp-567598,Dy7(TeIr)2,0.0
mp-1212830,Dy7(TePd)2,0.0
mp-1206619,Dy7(TePt)2,0.0
mp-1213064,Dy7Co6Sn23,0.0
mp-641778,Dy7In(CoGe3)4,0.0
mp-1105786,Dy7Rh3,0.0
mp-1213609,Dy8Ni18P11,0.0
mp-556015,Dy9(SbO)5,0.0
mp-2618,DyAg2,0.0
mp-1183815,DyAg3,0.0
mp-510687,DyAgPb,0.0
mp-10965,DyAgSb2,0.0
mp-21198,DyAgSn,0.0
mp-1225262,DyAgSn2,0.0
mp-433,DyAl,0.0
mp-803,DyAl2,0.0
mp-569385,DyAl2Ni,0.0
mp-864995,DyAl3,0.0
mp-1212853,DyAl3Ni2,0.0
mp-31180,DyAl4Ni,0.0
mp-16623,DyAl7Au3,0.0
mp-1225357,DyAl7Fe5,0.0
mp-862263,DyAlAg2,0.0
mp-1102191,DyAlAu,0.0
mp-1201129,DyAlB14,0.0
mp-1225308,DyAlCo4,0.0
mp-1078857,DyAlCu,0.0
mp-1225316,DyAlCu4,0.0
mp-1225267,DyAlGa,0.0
mp-1076977,DyAlGe,0.0
mp-3053,DyAlNi,0.0
mp-1225297,DyAlNi4,0.0
mp-1103382,DyAlPd,0.0
mp-1103319,DyAlPt,0.0
mp-1206330,DyAlSi,0.0
mp-1018674,DyAlZn,0.0
mp-1103232,DyAsPt,0.0
mp-1007918,DyAu,0.0
mp-11241,DyAu2,0.0
mp-1080590,DyAu3,0.0
mp-1199277,DyAu6,0.0
mp-1103476,DyB12,0.0
mp-2057,DyB2,0.0
mp-15644,DyB2C,0.0
mp-1024993,DyB2Ir3,0.0
mp-571041,DyB2Rh2C,0.0
mp-1025143,DyB2Rh3,0.0
mp-3092,DyB2Ru3,0.0
mp-1206856,DyB3Mo,0.0
mp-2719,DyB4,0.0
mp-1225314,DyB4(IrRh)2,0.0
mp-984836,DyB4Ru,0.0
mp-3183,DyBRh3,0.0
mp-31189,DyBe13,0.0
mp-1225311,DyBeCu4,0.0
mp-22907,DyBi,0.0
mp-1225388,DyBi3(Ru2O7)2,0.0
mp-1207000,DyBiO3,0.0
mp-30307,DyBiRh,0.0
mp-1225332,DyBiRu2O7,0.0
mp-864986,DyBr2,0.0
mp-541840,DyC2,0.0
mp-770,DyCd,0.0
mp-11295,DyCd3,0.0
mp-1227006,DyCd6,0.0
mp-867256,DyCdAg2,0.0
mp-1206542,DyCdAu,0.0
mp-867827,DyCdAu2,0.0
mp-1078853,DyCdCu,0.0
mp-1079242,DyCdGa,0.0
mp-864884,DyCdHg2,0.0
mp-1225370,DyCdIn,0.0
mp-1071811,DyCdNi4,0.0
mp-867276,DyCdPd2,0.0
mp-1183773,DyCdPt2,0.0
mp-867900,DyCdRh2,0.0
mp-1206207,DyClO2,0.0
mp-2628,DyCo2,0.0
mp-568945,DyCo3,0.0
mp-20193,DyCo3B2,0.0
mp-1195923,DyCo3P2,0.0
mp-2551,DyCo5,0.0
mp-1204813,DyCo5P3,0.0
mp-1212868,DyCoB4,0.0
mp-20350,DyCoC,0.0
mp-3847,DyCoC2,0.0
mp-1102863,DyCoGe,0.0
mp-1225312,DyCoNi,0.0
mp-19767,DyCoSi,0.0
mp-1225286,DyCoSi2Rh,0.0
mp-22228,DyCoSn,0.0
mp-20579,DyCoSn2,0.0
mp-1237565,DyCr2O2,0.0
mp-1206533,DyCr2Si2C,0.0
mp-1212873,DyCrO2,0.0
mp-1212865,DyCrSb3,0.0
mp-2334,DyCu,0.0
mp-1071835,DyCu2,0.0
mp-1072033,DyCu4Ag,0.0
mp-1206430,DyCu4Pd,0.0
mp-30578,DyCu5,0.0
mp-1212997,DyCu5Sn,0.0
mp-10992,DyCuAs2,0.0
mp-20010,DyCuGe,0.0
mp-1183771,DyCuO3,0.0
mp-22085,DyCuPb,0.0
mp-600449,DyCuSb2,0.0
mp-5365,DyCuSi,0.0
mp-22188,DyCuSn,0.0
mp-1225278,DyEr,0.0
mp-1183856,DyEr3,0.0
mp-1183800,DyErAg2,0.0
mp-1183795,DyErAl2,0.0
mp-1225265,DyErAl4,0.0
mp-1183828,DyErCd2,0.0
mp-1183862,DyErCu2,0.0
mp-1226057,DyErFe14B,0.0
mp-1225587,DyErMn4,0.0
mp-1183794,DyErRh2,0.0
mp-1183783,DyErRu2,0.0
mp-1225578,DyErTe2,0.0
mp-1183804,DyErTl2,0.0
mp-1183842,DyErZn2,0.0
mp-1757,DyFe2,0.0
mp-1225817,DyFe2Co2B,0.0
mp-568668,DyFe2SiC,0.0
mp-1189224,DyFe4(CuO4)3,0.0
mp-568006,DyFe5,0.0
mp-1201079,DyFe5P3,0.0
mp-1191987,DyFeB4,0.0
mp-1018065,DyFeC2,0.0
mp-1225619,DyFeCu,0.0
mp-1080645,DyFeGe2,0.0
mp-1225668,DyFeNi,0.0
mp-1225612,DyFeNi4,0.0
mp-30604,DyGa,0.0
mp-20064,DyGa2,0.0
mp-568354,DyGa2Cu3,0.0
mp-1095135,DyGa2Ni,0.0
mp-1092296,DyGa2Pd,0.0
mp-865103,DyGa3,0.0
mp-1225592,DyGa3Cu,0.0
mp-542992,DyGa3Ni2,0.0
mp-1105019,DyGa3Ru,0.0
mp-1078003,DyGa5Co,0.0
mp-1104534,DyGa6,0.0
mp-1225625,DyGaAg,0.0
mp-605252,DyGaCo,0.0
mp-1225686,DyGaCo4,0.0
mp-1225818,DyGaFeCo3,0.0
mp-1102760,DyGaNi,0.0
mp-22129,DyGaPd,0.0
mp-1189769,DyGaPd2,0.0
mp-1095583,DyGaPt,0.0
mp-862666,DyGaRh2,0.0
mp-1188410,DyGe2Ir,0.0
mp-616492,DyGe2Pt,0.0
mp-22149,DyGeAu,0.0
mp-21323,DyGeIr,0.0
mp-1190638,DyGePd,0.0
mp-1106158,DyGePd2,0.0
mp-9529,DyGeRh,0.0
mp-19986,DyGeRu,0.0
mp-24151,DyH2,0.0
mp-2443,DyHg,0.0
mp-11367,DyHg2,0.0
mp-864994,DyHg3,0.0
mp-1225502,DyHo,0.0
mp-1183844,DyHo3,0.0
mp-1225500,DyHoAl4,0.0
mp-1183820,DyHoHg2,0.0
mp-984767,DyHoIn2,0.0
mp-984768,DyHoIr2,0.0
mp-862692,DyHoMg2,0.0
mp-1225530,DyHoMn4,0.0
mp-1183786,DyHoRu2,0.0
mp-1183780,DyHoTl2,0.0
mp-1183799,DyHoZn2,0.0
mp-257,DyIn,0.0
mp-1079916,DyIn2Ni,0.0
mp-1213298,DyIn2Pd,0.0
mp-20236,DyIn3,0.0
mp-639756,DyIn3Cu2,0.0
mp-1078142,DyIn5Co,0.0
mp-20996,DyIn5Rh,0.0
mp-1226099,DyIn7Cu5,0.0
mp-20898,DyInAg2,0.0
mp-30374,DyInAu2,0.0
mp-1095190,DyInCo2,0.0
mp-1024940,DyInCo4,0.0
mp-1080594,DyInCu,0.0
mp-22723,DyInIr,0.0
mp-569086,DyInNi,0.0
mp-30606,DyInPd2,0.0
mp-22384,DyInPt,0.0
mp-1025113,DyInPt4,0.0
mp-567588,DyInRh,0.0
mp-861892,DyInRh2,0.0
mp-2417,DyIr3,0.0
mp-1183846,DyLu3,0.0
mp-1183791,DyLuAg2,0.0
mp-1183826,DyLuCd2,0.0
mp-1183810,DyLuCu2,0.0
mp-1183792,DyLuHg2,0.0
mp-1183806,DyLuIn2,0.0
mp-1183808,DyLuIr2,0.0
mp-866295,DyLuMg2,0.0
mp-756469,DyLuO3,4.6339999999999995
mp-1183831,DyLuRh2,0.0
mp-1183818,DyLuRu2,0.0
mp-1183789,DyLuTl2,0.0
mp-1183798,DyLuZn2,0.0
mp-2077,DyMg,0.0
mp-30602,DyMg2,0.0
mp-13225,DyMg2Cu9,0.0
mp-1183781,DyMg2Sc,0.0
mp-1546,DyMg3,0.0
mp-1078820,DyMgAg,0.0
mp-862680,DyMgAg2,0.0
mp-1205756,DyMgAu,0.0
mp-867762,DyMgAu2,0.0
mp-867773,DyMgCd2,0.0
mp-1205763,DyMgGa,0.0
mp-867826,DyMgHg2,0.0
mp-20573,DyMgIn,0.0
mp-1078639,DyMgPd,0.0
mp-867831,DyMgRh2,0.0
mp-1238023,DyMgSe3,0.0
mp-867348,DyMgSn,0.0
mp-1206809,DyMgTl,0.0
mp-866007,DyMgTl2,0.0
mp-865142,DyMgZn2,0.0
mp-20656,DyMn12,0.0
mp-1225876,DyMn2(Cr2Ge3)2,0.0
mp-1096947,DyMn2O4,0.0
mp-1205851,DyMn2SiC,0.0
mp-1225693,DyMn2SiGe,0.0
mp-640859,DyMn4(CuO4)3,0.0
mp-1225534,DyMnAl,0.0
mp-1195036,DyMnCu4P3,0.0
mp-1225552,DyMnFe,0.0
mp-1080064,DyMnGa,0.0
mp-21155,DyMnGe,0.0
mp-562154,DyMnO3,0.0
mp-22101,DyMnSi,0.0
mp-1202416,DyMnSn2,0.0
mp-1189253,DyMoC2,0.0
mp-1213400,DyN7O15,0.0
mp-866126,DyNbRu2,0.0
mp-2738,DyNi,0.0
mp-421,DyNi2,0.0
mp-6223,DyNi2B2C,0.0
mp-1077279,DyNi4Au,0.0
mp-1179,DyNi5,0.0
mp-1212806,DyNiAs,0.0
mp-1190599,DyNiB4,0.0
mp-4587,DyNiC2,0.0
mp-1102455,DyNiGe,0.0
mp-1087478,DyNiGe3,0.0
mp-19265,DyNiO3,0.0
mp-1102152,DyNiP,0.0
mp-1079636,DyNiSb2,0.0
mp-580525,DyNiSn2,0.0
mp-1212896,DyNiSn4,0.0
mp-1183869,DyNp3,0.0
mp-1183816,DyNpRu2,0.0
mp-1206731,DyO2,0.0
mp-984359,DyO3,0.0
mp-1102508,DyOs2,0.0
mp-1183851,DyOs3,0.0
mp-2014,DyP,0.0
mp-16326,DyPPt,0.0
mp-1205848,DyPRu2C,0.0
mp-1183835,DyPa,0.0
mp-1183793,DyPa3,0.0
mp-1183790,DyPaO3,0.0
mp-867279,DyPaRu2,0.0
mp-867278,DyPaTc2,0.0
mp-20176,DyPb3,0.0
mp-11242,DyPbAu,0.0
mp-2226,DyPd,0.0
mp-1063239,DyPd2,0.0
mp-1206592,DyPd2Pb,0.0
mp-797,DyPd3,0.0
mp-1080454,DyPdPb,0.0
mp-1078613,DyPt,0.0
mp-916,DyPt2,0.0
mp-2465,DyPt3,0.0
mp-1183910,DyPu3,0.0
mp-1102210,DyRe2,0.0
mp-1206141,DyRe2SiC,0.0
mp-1190368,DyReB4,0.0
mp-1388,DyRh2,0.0
mp-1183779,DyRh2Pb,0.0
mp-15856,DyRh3C,0.0
mp-30620,DyRh5,0.0
mp-1183778,DyRu3,0.0
mp-1206121,DyRu3C,0.0
mp-2470,DyS,0.0
mp-1007,DySb,0.0
mp-1018158,DySb2,0.0
mp-1183836,DySb3,0.0
mp-1212836,DySbIr,0.0
mp-1207184,DySbO3,0.0
mp-12041,DySbPd,0.0
mp-1212894,DySbRh,0.0
mp-1184063,DySbRh2,0.0
mp-1018677,DyScSb,0.0
mp-1184079,DyScZn2,0.0
mp-814,DySe,0.0
mp-1018683,DySe2,0.0
mp-1182,DySi,0.0
mp-12770,DySi2,0.0
mp-4171,DySi2Ni,0.0
mp-30621,DySi2Rh3,0.0
mp-1070146,DySi3Ir,0.0
mp-1213227,DySi3Ni5,0.0
mp-22830,DySi3Rh5,0.0
mp-1095130,DySiAg,0.0
mp-1077126,DySiNi4,0.0
mp-1205579,DySiOs2C,0.0
mp-1105784,DySiPd2,0.0
mp-20571,DySiPt,0.0
mp-1188085,DySiPt2,0.0
mp-1212831,DySiRh,0.0
mp-19873,DySiRu,0.0
mp-570595,DySiRu2C,0.0
mp-20021,DySn2,0.0
mp-31414,DySnAu,0.0
mp-866287,DySnAu2,0.0
mp-1080405,DySnGe,0.0
mp-1184153,DySnO3,0.0
mp-30618,DySnPd,0.0
mp-21014,DySnPd2,0.0
mp-1078760,DySnPt,0.0
mp-1079974,DySnRh,0.0
mp-866290,DySnRh2,0.0
mp-1184071,DyTa3,0.0
mp-865364,DyTaRu2,0.0
mp-1102084,DyTc2,0.0
mp-2159,DyTe,0.0
mp-1018679,DyTe2,0.0
mp-1086673,DyTe3,0.0
mp-756897,DyTe3O8,0.0
mp-20379,DyTh,0.0
mp-1225515,DyTh2,0.0
mp-1184093,DyTh3,0.0
mp-1225528,DyThCN,0.0
mp-1226066,DyThFe14B,0.0
mp-1225519,DyThN2,0.0
mp-1225636,DyThRe4,0.0
mp-1184103,DyThRu2,0.0
mp-866011,DyThTc2,0.0
mp-1225715,DyTiFe11C,0.0
mp-20626,DyTiGe,0.0
mp-779599,DyTiO3,0.0
mp-20954,DyTiSi,0.0
mp-11374,DyTl,0.0
mp-2415,DyTl3,0.0
mp-11373,DyTlPd,0.0
mp-1184061,DyTlRh2,0.0
mp-1018680,DyTlZn,0.0
mp-1184143,DyTm3,0.0
mp-1184080,DyTmAg2,0.0
mp-1184116,DyTmCd2,0.0
mp-1184109,DyTmCu2,0.0
mp-1225933,DyTmFe14B,0.0
mp-1184135,DyTmHg2,0.0
mp-1184137,DyTmIn2,0.0
mp-1184120,DyTmIr2,0.0
mp-866013,DyTmMg2,0.0
mp-1225536,DyTmMn4,0.0
mp-1184158,DyTmRh2,0.0
mp-1184074,DyTmRu2,0.0
mp-1206004,DyU2S3O2,0.0
mp-1184142,DyU3,0.0
mp-1225531,DyUAl4,0.0
mp-1225554,DyUN2,0.0
mp-1225573,DyUTe4,0.0
mp-1225110,DyUTe6,0.0
mp-1225106,DyV2Fe10N,0.0
mp-1191899,DyVB4,0.0
mp-1212946,DyVO2,0.0
mp-1181506,DyVSb3,0.0
mp-1181428,DyWC2,0.0
mp-1184149,DyY3,0.0
mp-971924,DyYAg2,0.0
mp-971922,DyYAl2,0.0
mp-979417,DyYCd2,0.0
mp-979946,DyYCu2,0.0
mp-1225043,DyYFe4,0.0
mp-971799,DyYHg2,0.0
mp-1184424,DyYIn2,0.0
mp-980387,DyYIr2,0.0
mp-1184136,DyYMg2,0.0
mp-979917,DyYRh2,0.0
mp-979434,DyYTl2,0.0
mp-979712,DyYZn2,0.0
mp-2303,DyZn,0.0
mp-1104551,DyZn12,0.0
mp-570093,DyZn2,0.0
mp-30626,DyZn3,0.0
mp-30627,DyZn5,0.0
mp-1018681,DyZnIn,0.0
mp-1079341,DyZnNi,0.0
mp-1078837,DyZnPd,0.0
mp-13379,DyZnRh,0.0
mp-1225041,DyZnSi,0.0
mp-1213053,DyZnSn,0.0
mp-1184123,DyZr,0.0
mp-1178359,DyZr4O9,0.0
mp-680636,Er(Al10Cr)2,0.0
mp-1104269,Er(Al2Cu)4,0.0
mp-3633,Er(Al2Fe)4,0.0
mp-1025358,Er(Al2Mo)2,0.0
mp-571253,Er(Al3Ni)3,0.0
mp-1212845,Er(Al5Fe)2,0.0
mp-1213047,Er(Al5Re)2,0.0
mp-1212826,Er(Al5Ru)2,0.0
mp-1225092,Er(AlFe)6,0.0
mp-13069,Er(AlGe)2,0.0
mp-10856,Er(BC)2,0.0
mp-1189046,Er(BIr)4,0.0
mp-8408,Er(BRh)4,0.0
mp-1196250,Er(BRu)4,0.0
mp-772790,Er(Bi3O5)4,0.0
mp-1188589,Er(Co2B)6,0.0
mp-1212824,Er(Co2Ge)2,0.0
mp-568509,Er(CoB)2,0.0
mp-5497,Er(CoGe)2,0.0
mp-3239,Er(CoSi)2,0.0
mp-12082,Er(CrSi)2,0.0
mp-5083,Er(CuGe)2,0.0
mp-15186,Er(CuO2)2,0.0
mp-4305,Er(CuSi)2,0.0
mp-20480,Er(Fe2Ge)2,0.0
mp-1225118,Er(Fe5Si)2,0.0
mp-3190,Er(FeB)2,0.0
mp-5451,Er(FeGe)2,0.0
mp-19415,Er(FeO2)2,0.0
mp-5688,Er(FeSi)2,0.0
mp-31197,Er(FeSn)6,0.0
mp-570680,Er(GeRh)2,0.0
mp-571296,Er(GeRu)2,0.0
mp-1184190,Er(Mg4Al3)4,0.0
mp-1225086,Er(MnAl)6,0.0
mp-4487,Er(MnGe)2,0.0
mp-3453,Er(MnGe)6,0.0
mp-4729,Er(MnSi)2,0.0
mp-1103936,Er(MnSn)6,0.0
mp-1104330,Er(Mo3S4)2,0.0
mp-1104287,Er(Mo3Se4)2,0.0
mp-510482,Er(Ni2As)2,0.013099999999999671
mp-1105062,Er(Ni2P)2,0.0
mp-1079335,Er(NiB)2,0.0
mp-4865,Er(NiGe)2,0.0
mp-3455,Er(NiP)2,0.0
mp-1079414,Er(NiSb)2,0.0
mp-1213464,Er(PO)2,0.0
mp-1206417,Er(PPd)2,0.0
mp-12058,Er(PRu)2,0.0
mp-755194,Er(ReO4)2,0.0
mp-3147,Er(SiAu)2,0.0
mp-3907,Er(SiIr)2,0.0
mp-4881,Er(SiNi)2,0.0
mp-21548,Er(SiNi5)2,0.0
mp-3958,Er(SiOs)2,0.0
mp-3218,Er(SiPd)2,0.0
mp-1079518,Er(SiPt)2,0.0
mp-5386,Er(SiRh)2,0.0
mp-5022,Er(SiRu)2,0.0
mp-11435,Er(TiGa2)2,0.0
mp-11436,Er(VGa2)2,0.0
mp-1225108,Er10Ga5Co,0.0
mp-1199385,Er10In20Ni9,0.0
mp-1198824,Er10Mn13C18,0.0
mp-1225477,Er10NiSb5,0.0
mp-28472,Er10Ru10C19,0.0
mp-37727,Er10Ti6O27,1.721
mp-1198518,Er11(AlGe4)2,0.0
mp-1197179,Er11(In3Ge2)2,0.0
mp-1200148,Er11(In3Si2)2,0.0
mp-1197229,Er11(Ni10C)6,0.0
mp-1203572,Er11Ge10,0.0
mp-1196703,Er11Sn10,0.0
mp-1203313,Er12(ReC3)5,0.0
mp-1212883,Er12Co5Bi,0.0
mp-30970,Er12Co7,0.0
mp-1225474,Er12Ga9Ge11,0.0
mp-1212895,Er12In3Fe2,0.0
mp-571580,Er14(InPd)3,0.0
mp-1225453,Er14Ag51,0.0
mp-22827,Er15C19,0.0
mp-1196963,Er15Si9C,0.0
mp-1212967,Er16In4Ir4O,0.0
mp-1181630,Er17(TeRu2)3,0.0
mp-1212854,Er2(Al3Pd)3,0.0
mp-1212861,Er2(Al3Rh)3,0.0
mp-1225250,Er2(AlNi)5,0.0
mp-1225103,Er2(B2Rh3)3,0.0
mp-866685,Er2(Ga3Co)3,0.0
mp-1212874,Er2(Ga3Ir)3,0.0
mp-1213067,Er2(Ga3Rh)3,0.0
mp-1212887,Er2(Ga3Ru)3,0.0
mp-1213024,Er2(GePt3)3,0.0
mp-1197355,Er2(Ni2B)5,0.0
mp-1199522,Er2(Ni5B3)3,0.0
mp-1193830,Er2(Ni7B2)3,0.0
mp-4071,Er2(NiB2)3,0.0
mp-1228844,Er20Cu6(Pb3S14)3,1.4809999999999999
mp-1213466,Er21(In2Rh5)2,0.0
mp-1213669,Er25Ni49P33,0.0
mp-1184110,Er2AgAu,0.0
mp-1184075,Er2AgHg,0.0
mp-977416,Er2AgIr,0.0
mp-1184131,Er2AgOs,0.0
mp-1184085,Er2AgPt,0.0
mp-862978,Er2AgRu,0.0
mp-1102875,Er2Al,0.0
mp-1201145,Er2Al17,0.0
mp-567849,Er2Al3Co,0.0
mp-1225048,Er2Al3Cu,0.0
mp-1199551,Er2Al3Fe14,0.0
mp-1225037,Er2Al3Ga,0.0
mp-1188179,Er2Al3Ge4,0.0
mp-12004,Er2Al3Si2,0.0
mp-1205974,Er2Al4CoGe2,0.0
mp-1205834,Er2Al4NiGe2,0.0
mp-1184106,Er2AlCd,0.0
mp-1225069,Er2AlCo3,0.0
mp-1225076,Er2AlCu,0.0
mp-1225058,Er2AlFe3,0.0
mp-1212956,Er2AlGe3,0.0
mp-1068244,Er2AlNi2,0.0
mp-10529,Er2AlSi2,0.0
mp-1184084,Er2AlZn,0.0
mp-1225165,Er2As7Rh12,0.0
mp-1102972,Er2Au,0.0
mp-1025246,Er2B4C,0.0
mp-1198965,Er2B6Os,0.0
mp-1212905,Er2B6Rh,0.0
mp-1198465,Er2B6Ru,0.0
mp-1069613,Er2BiO2,0.0
mp-1212779,Er2Br2O,0.0
mp-1225044,Er2C,0.0
mp-1213505,Er2CO7,0.0
mp-1206454,Er2CdCu2,0.0
mp-1079052,Er2CdGe2,0.0
mp-1184096,Er2CdHg,0.0
mp-862981,Er2CdIn,0.0
mp-1184134,Er2CdOs,0.0
mp-1205644,Er2CdPd2,0.0
mp-1203663,Er2Co12Ni5,0.0
mp-7788,Er2Co12P7,0.0
mp-2531,Er2Co17,0.0
mp-1225055,Er2Co3Cu,0.0
mp-1006352,Er2Co3Ge5,0.0
mp-569509,Er2Co7,0.0
mp-1190704,Er2Co7B3,0.0
mp-1095140,Er2CoGe2,0.0
mp-1184125,Er2CoIr,0.0
mp-568728,Er2CoSi2,0.0
mp-1078190,Er2Cr2C3,0.0
mp-21707,Er2CrS4,0.0
mp-1184091,Er2CuAu,0.0
mp-1080743,Er2CuGe6,0.0
mp-1184124,Er2CuIr,0.0
mp-1225072,Er2CuNi,0.0
mp-753901,Er2CuO4,0.0
mp-866100,Er2CuOs,0.0
mp-1184092,Er2CuPd,0.0
mp-862940,Er2CuPt,0.0
mp-862944,Er2CuRu,0.0
mp-1225070,Er2CuSi3,0.0
mp-1184097,Er2CuTc,0.0
mp-1190642,Er2Fe12P7,0.0
mp-567623,Er2Fe14C,0.0
mp-1204517,Er2Fe14Si3,0.0
mp-1724,Er2Fe17,0.0
mp-1225238,Er2Fe17C,0.0
mp-1225775,Er2Fe17C2,0.0
mp-1191671,Er2Fe17C3,0.0
mp-1213007,Er2Fe17H3,0.0
mp-1025354,Er2Fe2Si2C,0.0
mp-1225556,Er2Fe3Cu,0.0
mp-680269,Er2Fe3Si5,0.0
mp-1225730,Er2Fe4Si9,0.0
mp-1225690,Er2Fe6Co6P7,0.0
mp-9977,Er2FeC4,0.0
mp-31095,Er2FeSi2,0.0
mp-647247,Er2Ga10Os3,0.0
mp-1225739,Er2Ga3(Fe7C)2,0.0
mp-1225597,Er2Ga3Cu,0.0
mp-1225643,Er2Ga3Ni,0.0
mp-1225618,Er2Ga6Cu11,0.0
mp-985468,Er2Ga8Co,0.0
mp-1095585,Er2Ga8Fe,0.0
mp-1225533,Er2GaCu,0.0
mp-1205564,Er2Ge2Ru,0.0
mp-29777,Er2Ge5,0.0
mp-984743,Er2Ge5Rh3,0.0
mp-1076961,Er2GeRh3,0.0
mp-1207058,Er2I2O,0.0
mp-877,Er2In,0.0
mp-1225615,Er2In3Cu,0.0
mp-866004,Er2InAg,0.0
mp-1079059,Er2InAu2,0.0
mp-1078738,Er2InCu2,0.0
mp-1184102,Er2InHg,0.0
mp-1067986,Er2InNi2,0.0
mp-12689,Er2InPd2,0.0
mp-861984,Er2IrPd,0.0
mp-861985,Er2IrRh,0.0
mp-867214,Er2IrRu,0.0
mp-862915,Er2Mg,0.0
mp-1070135,Er2Mg2Ru,0.0
mp-861946,Er2MgAl,0.0
mp-1184086,Er2MgCd,0.0
mp-1184090,Er2MgGa,0.0
mp-862697,Er2MgGe2,0.0
mp-863702,Er2MgIn,0.0
mp-1205516,Er2MgNi2,0.0
mp-1184112,Er2MgOs,0.0
mp-1206813,Er2MgSi2,0.0
mp-1184126,Er2MgTc,0.0
mp-983556,Er2MgTl,0.0
mp-1191019,Er2Mn12P7,0.0
mp-1213058,Er2Mn17C3,0.0
mp-1225596,Er2Mn3Ga,0.0
mp-622190,Er2Mn3Si5,0.0
mp-1225658,Er2MnGa3,0.0
mp-3776,Er2Mo2C3,0.0
mp-756393,Er2Nb2O7,0.0
mp-1202972,Er2Nb3Ge4,0.0
mp-542718,Er2Ni12As7,0.0
mp-540772,Er2Ni12P7,0.0
mp-30608,Er2Ni17,0.0
mp-1080713,Er2Ni2Sn,0.0
mp-1200559,Er2Ni7,0.0
mp-1087228,Er2NiAs2,0.0
mp-862992,Er2NiIr,0.0
mp-867344,Er2NiOs,0.0
mp-862615,Er2NiRu,0.0
mp-1212954,Er2NiRuO6,0.0