task_id,pretty_formula,band_gap
mp-977364,HoPaOs2,0.0
mp-977372,Pm2SnHg,0.0
mp-977376,TbCdAu2,0.0
mp-977378,ErCdAg2,0.0
mp-977414,ZnCu2SiS4,1.2780999999999993
mp-979273,TePd3,0.0
mp-981208,YTmHg2,0.0
mp-981213,TbSmIr2,0.0
mp-981390,HgBi3,0.0
mp-981396,Y(BIr)4,0.0
mp-981435,LaNp3,0.0
mp-981458,YbTa,0.0
mp-981545,Ho3Zr,0.0
mp-981546,PrHo3,0.0
mp-981662,YbU3,0.0
mp-985605,Cs3Ni,0.0
mp-995285,VFe11C4,0.0
mp-998298,CsSnF3,3.1037999999999997
mp-998896,YC,0.0
mp-999200,Si,1.1825999999999999
mp-999300,PdN,0.0
mp-999389,NbFe3,0.0
mvc-15580,MgWO2,0.0
mvc-3414,ZnAgF5,0.0
mvc-3681,Ca3Cr2O7,0.9913000000000003
mp-10097,Na3Sr3GaAs4,0.44189999999999996
mp-1015567,CrN2,0.27060000000000006
mp-1029490,Sr3B3N5,2.2443999999999997
mp-1029592,Li3YN2,2.0797999999999996
mp-1147631,LiCuOF,0.0
mp-1147702,Li(CuO)3,0.0
mp-1180547,LiAlH4,3.9430999999999994
mp-1182993,AlC7IN,0.0
mp-1183925,CsCdO3,0.0
mp-1183998,Ga3Tc,0.0
mp-1184423,Gd3I,0.0
mp-1184575,Ho3Er,0.0
mp-1184703,Hf3Pb,0.0
mp-1184825,In3Pt,0.0
mp-1184941,KLuO3,0.0
mp-1184963,KPm3,0.0
mp-1185005,KLa3,0.0
mp-1185357,LiLaO3,0.0
mp-1185889,MgInO3,0.0
mp-1186027,MoSe,0.0
mp-1186084,Na3Yb,0.0
mp-1186153,NaPbO3,0.0
mp-1186173,NaPm3,0.0
mp-1186656,PmTm3,0.0
mp-1186985,ScNi3,0.0
mp-1187145,SrDyO3,0.0
mp-1187177,SrF3,0.0
mp-1187267,Tb3Ag,0.0
mp-1187569,YbInO3,0.0
mp-1187923,Zn3Cr,0.0
mp-1188012,Zr3I,0.0
mp-1188027,Zr3Mn,0.0
mp-1206750,CrPt,0.0
mp-1206922,Ce3SnN,0.0
mp-1207135,Gd3TlC,0.0
mp-1209984,NdGa4Os,0.0
mp-1214109,Ca2YbRuO6,0.0
mp-1215880,Zr8As5,0.0
mp-1216698,TiSeS,0.0
mp-1218268,SrCuSi,0.0
mp-1219476,RuW,0.0
mp-1220244,NdFeGe,0.0
mp-1220773,Ni43(GeB4)3,0.0
mp-1221395,Na(NbS2)2,0.0
mp-1221519,Mo2CN,0.0
mp-1221579,MnSiNi2,0.0
mp-1221622,MnCoSnRh,0.0
mp-1221625,MnCoSb,0.0
mp-1221634,MnCo2Si,0.0
mp-1221934,MgTaN2,0.0
mp-1222648,Li2MgCd,0.0
mp-1224173,HfZn2Ga,0.0
mp-1224692,Fe2Pt,0.0
mp-1224926,GaFe,0.0
mp-1225502,DyHo,0.0
mp-1227275,Be4AlCu,0.0
mp-1228559,Al5Ni41B12,0.0
mp-1228960,AlCr4CuS8,0.05339999999999989
mp-13923,SnPS3,2.1281999999999996
mp-15492,DyTa7O19,3.2222999999999997
mp-18463,RbZnPO4,3.7026999999999997
mp-24104,LiAlSi2H2O7,4.858
mp-504340,LiSb(PO3)4,4.1842999999999995
mp-579768,CsTmCl3,0.0
mp-624769,P2WO8,2.5303999999999998
mp-628637,Cu3BiSe2BrO8,0.0
mp-628781,GeTe,0.0
mp-629511,Ce2SbS5Br,0.0
mp-630227,C,0.9032
mp-630328,Ba3FeS5,0.0
mp-630403,Ca2MnGaO5,0.0
mp-630760,KHgC3(SN)3,1.8858000000000001
mp-630820,Yb4Cu2Sn5,0.0
mp-630836,Nd3(GeRu)2,0.0
mp-630851,Cs3NaPb4,0.47540000000000004
mp-630859,Mn2C7S2O7,2.5791999999999997
mp-630867,RbLiNd2(MoO4)4,3.4112999999999998
mp-630875,Ca2In4Au3,0.0
mp-630923,Ba3Pb5,0.0
mp-676378,Sr6Ta2O11,2.3998999999999997
mp-676430,Ag9(SI)4,0.0
mp-676515,YZr5O12,0.0
mp-676611,Bi7(S3Cl)3,0.9489000000000001
mp-676620,Li27As10,0.0
mp-7147,KCrP2S7,1.2502999999999997
mp-720263,CuH4SeO5,0.0
mp-720515,HN,4.3591999999999995
mp-720554,LiPH4NO3F,5.104100000000001
mp-720615,H4NClO5,5.492299999999999
mp-720670,Na10Zn7Sn7H24(S13O6)2,1.9306999999999999
mp-720703,NaUHOF5,0.0
mp-721287,Na3AsH14SO10,3.2540999999999998
mp-754445,Li2Ti(BO3)2,2.7927999999999997
mp-758259,Li4Ti3Cu3(TeO8)2,0.0
mp-758270,Li3Ti(PO4)2,0.21030000000000015
mp-758272,Zr4N2O5,2.277
mp-758291,Li3Sn3(PO4)4,0.0
mp-758311,Li2CuSiO4,0.0
mp-758324,Ti5Nb2O14,0.0
mp-758350,Nb8Tl8O25,0.0
mp-758357,Li3Ti3(PO4)4,0.0
mp-758374,Ta7(P2O7)8,0.0
mp-758382,Li7(CuO2)6,0.0
mp-758393,Li3Ti2(PO4)3,0.0
mp-758413,Na2CdO2,0.20799999999999996
mp-758428,Ti3NbO8,0.0
mp-758430,LiCuPO4,0.0
mp-758435,Li2CuSiO4,0.0
mp-758450,LiCu3(CO3)3,0.0
mp-758475,Li4(CuO2)3,0.0
mp-758527,K3ErSi3(HO5)2,4.6339999999999995
mp-763338,V3O5F,0.0
mp-763342,FeOF,1.0130000000000001
mp-763363,LiPWO5,0.0
mp-763365,Mn3O5F,0.0
mp-763372,LiP3(WO6)2,0.0
mp-763380,Li4Mn7O16,1.0473999999999999
mp-763394,LiV(PO3)4,2.5202999999999998
mp-763398,Li2Cr3(CO3)6,0.0
mp-763408,Li3Co2(CO3)4,0.673
mp-763415,Fe8SiO12,0.44540000000000024
mp-763418,Li2Fe3O10,0.0
mp-763420,Ti2V3Cr(PO4)6,0.0
mp-763433,Li2MnF4,3.7436999999999996
mp-763434,Li5MnO3F,2.3167999999999997
mp-763437,LiWF6,3.4707999999999997
mp-765046,Li4V2OF7,0.9141999999999999
mp-765954,LiP2WO8,2.308
mp-765968,LiNiP2O7,0.0
mp-765975,VF5,3.1750999999999996
mp-766031,NaMgH4SO6F,5.0653999999999995
mp-766035,Bi12Cl5O16,0.0
mp-766067,Al15Fe9O32,1.6421999999999999
mp-766079,Sr8Cu8O17,0.0
mp-766084,Li7Nb12O24,0.0
mp-766114,Li4MnFe3(PO4)4,3.7836000000000003
mp-766118,BiP2O7,0.02429999999999999
mp-766123,Ce4ThO10,1.8415999999999997
mp-766135,Sr6Bi2O11,1.0352999999999999
mp-766141,Mn2NbV3(PO4)6,0.0
mp-766146,Li5Fe2Co5O12,0.0
mp-766153,LiNiBO3,3.2699999999999996
mp-766157,Li6VO4F,2.3204000000000002
mp-770039,Li4Cr3NiO8,0.0
mp-770058,Li2CrFeO4,1.9275000000000002
mp-770080,Li2MnSiCO7,1.2593999999999999
mp-770125,BaLaCl5,3.8800999999999997
mp-770126,Rb3FeO3,0.9687999999999999
mp-770140,Li4Fe5Sb3O16,0.9514000000000005
mp-770141,LiMn2(SO4)3,0.0
mp-770142,LiVCo3(PO4)6,0.0
mp-770145,Li4CrFe3O8,1.9207999999999998
mp-771002,Li2TiVO4,0.48139999999999983
mp-773286,Li4Mn5NiO12,0.01540000000000008
mp-773290,KVPCO7,1.8135999999999999
mp-773324,Li4Fe3Ni5O16,0.0
mp-773327,Li2VP2O7,2.6717999999999997
mp-773337,Li5Mn7O12,0.0
mp-773382,Li4Fe3Ni3(TeO8)2,0.0
mp-773387,Li4Fe5Co3O16,0.0
mp-773388,Li4Mn5Nb3O16,0.0
mp-773394,Fe(SO4)2,0.0
mp-773395,Mn5Sb(PO4)6,0.0
mp-773396,Cr4P2O9,2.0185999999999997
mp-777654,Mn3O5F,0.0
mp-777667,LiV2O5,1.6281999999999999
mp-777673,Li2FeF4,3.6433999999999997
mp-777686,Li9Mn3(WO4)7,0.0
mp-777693,Mn4O7F,0.0
mp-777698,V2O3,1.4363000000000001
mp-777703,MnOF,0.0
mp-777711,LiFeBO3,3.1611000000000002
mp-777712,Mn3O5F,0.0
mp-777718,Li2MnF4,3.871
mp-777742,Li3FeS3,0.0
mp-777787,HoAsO4,3.6677999999999997
mp-777810,Ge11N11O5,0.0
mp-777851,Li3Bi(BO3)2,2.9356999999999998
mp-779999,Li4V(TeO4)3,0.9344000000000001
mp-850869,Fe5O7F3,0.0
mp-850880,Fe4O5F3,0.0
mp-850883,Fe4O5F3,0.0
mp-850899,Mn3OF8,0.45210000000000006
mp-850900,Li3V2(PO4)3,0.0
mp-850901,Fe3(O2F)2,0.0039000000000000146
mp-850902,CrFe3Ni2(PO4)6,0.0
mp-850904,Mn2OF3,0.0
mp-850934,Fe6O11F,0.0
mp-850935,CoOF,0.0
mp-850965,Li2Mn3(BO3)3,0.0
mp-850976,Mn6O7F5,0.0
mp-850979,V3(O2F)2,1.0171000000000001
mp-850988,Co3(OF2)2,0.024700000000000166
mp-850991,Mn6O7F5,0.0
mp-991676,NbCu3Te4,0.9408000000000003
mp-676725,Lu3NbO7,2.0953999999999997
mp-676779,NaHo2F7,5.8347999999999995
mp-676804,Ho3TaO7,3.544
mp-676855,In(HO)3,1.9485999999999999
mp-676877,Nb(Cl2O)2,0.0
mp-676951,Dy3NbO7,2.816
mp-677080,K6Ba3Ta12(Si2O13)4,2.7981999999999996
mp-677094,MgTi3Nb2(PbO3)6,1.9826000000000006
mp-677132,Gd2CdSe4,0.9607000000000001
mp-677136,LiCa3Zr3TaO12,3.9393999999999996
mp-677222,Ba3La3Ti4NbO18,2.4082999999999997
mp-677288,Mg5AlH21O17,1.7189999999999999
mp-720853,Na2PH5O6,4.7242999999999995
mp-720859,VH11N3Cl5,0.0
mp-720921,Na2Te2H4O7,3.7367999999999997
mp-721059,H8AuC2S2N4ClO4,3.3284000000000002
mp-721072,Cu3As2H2PbO10,0.0
mp-721442,PH5(NO2)2,0.0
mp-721564,Na3SiH5O6,3.8646999999999996
mp-721592,Ca6Al7O16,0.0
mp-721686,SnH4(ClO)2,3.8242000000000003
mp-758571,Al11TlO17,4.585100000000001
mp-758587,Li2CuPO4,1.4144000000000005
mp-758616,LiCuPO4,0.0
mp-758620,LiCu2(CO3)3,0.0
mp-758635,UH12S2O15,2.203
mp-758708,Li2CuSiO4,0.0
mp-758743,Li2CuSiO4,0.0
mp-758758,Li2CuSiO4,0.0
mp-758780,LiBiP2O7,4.351100000000001
mp-758810,LiBi2P3O11,3.4454000000000002
mp-758841,LiCu2F7,0.0
mp-758848,Ti5NbO12,0.0
mp-758886,LiCuPO4,0.0
mp-758907,CrH18I7N6,1.4344999999999999
mp-758925,Na6Zn3As4H6O19,2.9932999999999996
mp-759001,Mg2Cu2P2(H4O5)3,0.10219999999999985
mp-759028,Li3Sb3(PO4)4,3.2319999999999998
mp-759131,LiCu3F10,0.0
mp-759183,K2Mg(H2N)4,2.2680000000000002
mp-763449,Li4V7(PO4)6,1.9388999999999994
mp-763450,Li3V3(PO4)4,1.8506999999999998
mp-763454,LiMn2OF3,1.3080000000000003
mp-763456,LiP4WO12,3.8487999999999998
mp-763470,Li2CoSiO4,2.8270999999999997
mp-763471,LiFe2C2O7,1.5354999999999999
mp-763478,LiP2WO7,3.5039999999999996
mp-763490,Li4Ti3Nb3Cr2O16,0.0
mp-763491,Fe4O7F,0.0
mp-763492,Li3CoSiO5,1.1762000000000001
mp-763504,Li3Mn8(OF3)4,0.0
mp-763506,TiFe2O5,1.9330000000000003
mp-763524,LiFe2(CO3)4,0.0
mp-763527,VFe3Cu2(PO4)6,0.0
mp-763542,Li3Ni2(CO3)4,0.018100000000000005
mp-763545,LiVPO5,1.668
mp-763551,Mn2VO4,0.0
mp-766170,Li9Ti5(SiO8)2,0.0
mp-766176,LiSiBiO4,3.3406000000000002
mp-766196,LiSiBiO4,3.3611999999999997
mp-766202,Li7Ti3(SiO6)2,0.0
mp-766248,Al11InO17,3.720999999999999
mp-766262,H20C3(N2O5)2,4.7036999999999995
mp-766268,Bi12O16F5,0.0
mp-766274,Cu2H3NO6,0.0
mp-766286,Bi8Rh8O27,0.0
mp-766287,BaCa2I6,3.0888999999999998
mp-766289,ZrU9O20,0.0
mp-766302,Ba5Nb5O14,0.0
mp-766324,BaCaI4,3.1399999999999997
mp-766352,BaCa2I6,3.6891999999999996
mp-766360,La6Cu6O17,0.0
mp-766367,Dy5(ReO6)2,0.0
mp-766387,RbAl11O17,4.7303999999999995
mp-766393,Li7Ti11O24,0.0
mp-766423,Li8BiS6,0.0
mp-766452,La9ErO15,3.8786999999999994
mp-766467,LiCuS,1.2911000000000001
mp-766504,Te2(PO4)3,0.0
mp-766521,Li10Cu4S9,0.0
mp-766543,Li7Ti11O24,0.0
mp-766561,LiNd14(Cu3O14)2,0.0
mp-766570,Ce3Th4O14,1.8083999999999998
mp-770153,Li3Fe2P2(CO7)2,0.0
mp-770155,Li3V3(BO5)2,1.2932000000000001
mp-770160,Li2Co2(SO4)3,2.703
mp-770166,Li2FePCO7,2.4528999999999996
mp-770167,Li2FePCO7,2.4490999999999996
mp-770178,Li4MnCrO6,0.9886999999999997
mp-770182,MnV(PO4)2,0.10289999999999999
mp-770190,Li4V2Si(PO6)2,1.9445999999999994
mp-770195,Mn3Fe3(CoO8)2,0.0
mp-770199,Li2CoSn3(PO4)6,0.0
mp-770220,Ni2(SO4)3,0.0
mp-770228,Li2FePCO7,2.4507999999999996
mp-770231,Li4Cr3NiO8,0.0
mp-770239,Ba2Ta2O7,2.9092000000000002
mp-770241,Li4Cr3GaO8,3.1165999999999996
mp-770243,Li3Mn2P2(CO7)2,0.0
mp-770245,LiCrNiO4,0.0
mp-770247,Li4Ti2V3Ni3O16,1.3155000000000001
mp-770249,Li4Cr3NiO8,0.0
mp-770251,Ti4VO8,0.0
mp-770253,Li4Cr3GaO8,3.0726999999999998
mp-770254,Li3Mn2P2(CO7)2,0.0
mp-770261,Mn2P2O7,3.2941999999999996
mp-770274,NiP4,0.0
mp-773405,Cr3Cu(PO4)4,0.0
mp-773406,Co(SO4)2,0.0
mp-773408,Na5LiMn2P2(CO7)2,3.3386999999999993
mp-773431,K2NiPCO7,0.0
mp-773434,TiNi5(PO4)6,0.0
mp-773441,Li5Ni5(SnO6)2,0.12299999999999933
mp-773454,Li5CoO4,1.4065999999999999
mp-773457,Li9Fe3(WO4)7,0.0
mp-773464,Mn5V(PO4)6,0.0
mp-773469,Li4Mn5Te3O16,0.0
mp-773502,KCoPCO7,0.0
mp-773504,V3Sb2(PO4)6,0.0
mp-773506,Mn5Cu(PO4)6,0.0
mp-773507,MnNi(PO4)2,0.0
mp-773508,Li4Cu3Ni3(WO8)2,0.0
mp-773513,Er2(WO4)3,3.9171000000000005
mp-773516,Li3NiO3,1.4143999999999999
mp-773521,La6Mn3O14,0.0
mp-773535,LiVFeO4,1.9966999999999997
mp-773537,Li4Ti3Cr3(WO8)2,0.0
mp-773538,CrFe3Cu2(PO4)6,0.0
mp-773539,NaLi5Mn2P2(CO7)2,3.6214000000000004
mp-773540,Mn5Ni(PO4)6,0.16559999999999997
mp-773547,Li3Fe2OF5,2.848
mp-773551,Li4MnFe3(BO3)4,3.1491000000000002
mp-773560,LiMnF3,3.3287999999999998
mp-777864,Li2MnF4,4.059699999999999
mp-777889,Li4Fe(TeO4)3,0.0
mp-777895,MnCr2Ni3(PO4)6,0.0
mp-777897,Li4Ti2V3Cu3O16,0.0
mp-777909,Li2Cr2(PO4)3,0.0
mp-777912,Fe6O5F7,1.2268000000000001
mp-777915,Na2FeO2,0.9472999999999999
mp-777916,Li4Fe3Cu3(TeO8)2,0.0
mp-777917,Li4V5Cu3O16,0.0
mp-778563,Mn3(OF2)2,0.0
mp-778566,Li4Mn3Fe(BO3)4,2.8846999999999996
mp-778570,Fe4OF7,1.6444999999999999
mp-778572,Li2VFeP2(O4F)2,1.8098999999999998
mp-778574,V4(OF3)3,1.8239999999999998
mp-778575,Li4Co3(NiO4)3,0.0
mp-778583,Li3Mn2(CoO4)2,0.0
mp-778587,Mn3O5F,0.0
mp-778594,Na2V6O15,0.0
mp-778622,Li3Fe2(SiO4)2,1.9231999999999998
mp-778638,Fe3(OF2)2,0.9068000000000003
mp-778642,Fe6O7F5,0.0
mp-778653,LiLa3Ti3CrO12,0.0
mp-778656,Li4Mn3(CoO4)3,0.0
mp-850996,Fe4O7F,0.0
mp-850997,Fe3O5F,0.0
mp-851009,Li5Fe7O3F13,2.4013999999999998
mp-851014,Li5Mn6(BO3)6,0.0
mp-851015,LiMn3(BO3)3,0.42910000000000004
mp-851017,Na2CoO3,0.41480000000000006
mp-851018,Li5Mn6(BO3)6,0.0
mp-851024,VCr2Ni3(PO4)6,0.0
mp-851028,Mn3OF5,0.0
mp-851031,Li4Mn3Co2Sb3O16,0.0
mp-851036,P3(WO6)2,2.0564999999999998
mp-851037,Mn6O5F7,0.0
mp-851045,Fe3O5F,0.0
mp-851046,Fe2O3F,0.0
mp-851047,LiFe2OF3,2.3114999999999997
mp-851077,LiMnP2(HO4)2,1.0385999999999997
mp-851213,Na6Mn2P(CO4)4,0.0
mp-851260,Fe3O5F,0.0
mp-851279,Mn3Nb2Co3O16,0.0
mp-851287,Co21O40,0.0
mp-851357,Fe2S,0.0
mp-853141,Li3V4O11F,1.3797000000000001
mp-853143,MnOF,0.0
mp-853145,Mn4O7F,0.0
mp-853147,Co2OF3,0.0
mp-853150,Mn3(OF2)2,0.0
mp-853151,Li5Mn(Ni2O5)2,0.0
mp-853154,LiNbVO4,0.0
mp-631961,La5In3Br,0.0
mp-632502,Zr2InNi2,0.0
mp-632810,Pr3Ga10Ni,0.0
mp-634117,BH3,5.3233999999999995
mp-634466,HgH12(ClO7)2,3.481
mp-634657,NaHS,3.1576999999999997
mp-677413,K2SO3,0.0
mp-677430,NaLiLa2Ti4O12,1.9969000000000001
mp-677573,NaCa2Mg2(AsO4)3,2.9898000000000002
mp-677703,Nd4Si4N7ClO3,3.1679999999999997
mp-677780,Ca2MgSi2O7,4.233700000000001
mp-679979,La9B3C6I5,0.0
mp-679985,Ba3In4(CuO4)3,0.26529999999999987
mp-680047,CdI2,2.3387000000000002
mp-680057,Sb3Pd8,0.0
mp-721943,CuSiH12(OF)6,0.0
mp-722278,BaSiP4(HO7)2,5.7482999999999995
mp-722280,LiCuH4Cl3O2,0.30119999999999997
mp-722315,ZnH3CNO3,3.519
mp-722515,NaCu2H2(SeO5)2,0.0
mp-722860,Na2MgH4(SO4)2,5.1274999999999995
mp-722902,LiH2NO3,2.7718999999999996
mp-759207,LiSb(TeO4)3,1.2295000000000003
mp-759209,Ag2SnO3,0.0
mp-759235,Li2CuF5,0.0
mp-759242,InH10N2Cl5O,3.3472999999999997
mp-759302,Yb2TiO5,0.0
mp-759333,Na7Ti11O24,0.0
mp-759341,Li4Cu(PO3)6,0.33610000000000007
mp-759405,Bi3O2F5,3.2849999999999997
mp-759406,Li3Sb(PO4)2,3.3310999999999997
mp-759473,Na5Ti3O8,0.0
mp-759489,BaTi8O16,0.0
mp-759498,LiSbP2O7,3.7232000000000003
mp-759526,Bi2O3,1.7255000000000003
mp-759544,In3Cu3O8,0.0
mp-759560,LiTi6O12,0.0
mp-759603,H9CN5Cl2,4.702999999999999
mp-759636,Nb5O12F,0.0
mp-759638,Y5Tm11O24,4.047700000000001
mp-759640,LiCuCO3,2.0307999999999997
mp-759658,LiAgF2,1.5270000000000001
mp-759678,Li4Ti15O32,1.9439000000000002
mp-759680,LiSi2BiO6,3.6346000000000003
mp-759694,Mg2Ti7O15,0.0
mp-759704,Li2Cu2P4O13,0.22040000000000015
mp-759713,Li8Ti15O32,0.0
mp-759717,Li2Cu3F8,0.0
mp-763562,LiVP2O7,0.17749999999999977
mp-763566,LiP2WO7,3.7304000000000004
mp-763570,Mn3Cu3(TeO8)2,0.0
mp-763572,LiV2P5O16,2.1233999999999997
mp-763575,Li10Co(SiO5)2,1.9408999999999998
mp-763576,Li3(FeO3)2,0.0
mp-763577,Li3Ti2V2O8,0.0
mp-763578,Li4(NiO2)5,0.48960000000000026
mp-763579,Li4Cr5O10,0.0
mp-763581,Li8(FeO2)5,0.0
mp-763586,LiV2(PO3)5,2.7701000000000002
mp-763587,Li4Ti3Mn3(SbO8)2,0.025100000000000122
mp-763597,Li4Cr3Co3(NiO8)2,0.9628999999999999
mp-763599,LiFe2(CO3)4,0.09719999999999995
mp-763600,LiCo2C2O7,1.0032999999999999
mp-763603,LiP3(WO6)2,0.9246000000000003
mp-763607,LiP(WO4)2,0.05830000000000002
mp-763608,LiMn7O12,0.41080000000000005
mp-763613,LiMn2(CO3)4,0.23649999999999993
mp-763615,LiFe2C2O7,2.3087999999999997
mp-763619,Li2Fe(SiO3)2,3.3924999999999996
mp-763621,LiFe(PO3)3,3.8561999999999994
mp-763628,Li3TiMn3O8,1.1442999999999999
mp-763633,Li3Ti2(NiO4)2,0.0
mp-763643,LiMn(PO3)3,3.6891000000000003
mp-763646,Sr3(CoO3)2,0.0
mp-763650,LiP3W2O13,3.8082000000000003
mp-763651,LiVP2O7,1.9781999999999997
mp-766581,Li4TiS4,1.9017000000000002
mp-766608,Li5Co2Cu2(PO4)4,0.0
mp-766614,Li5Co5(CuO6)2,0.0
mp-766631,Li4Co3Cu3(TeO8)2,0.0
mp-766633,Ti3V2Cu(PO4)6,0.0
mp-766712,Li2CrCo3O8,0.0
mp-766719,CoNi(PO4)2,0.0
mp-766723,CoTe2O5,2.0431999999999997
mp-766725,Zn3Co9O16,0.0
mp-766726,LiCoPO4,0.0009999999999998899
mp-766728,LiV(SiO3)2,2.1654999999999998
mp-766738,Co(BiO3)2,0.0
mp-766740,Li6Cr5CuO12,0.40959999999999974
mp-766741,LiFePO5,0.0
mp-766742,Li6Mn5FeO12,0.0
mp-766750,Li2MnCu(PO4)2,0.0
mp-766754,Li2NiP2O7,2.4722999999999997
mp-766758,Li7Mn11O24,0.0
mp-766762,LiFePO4,3.6405000000000003
mp-766767,Li5Co2Ni5O12,0.0
mp-766768,Li4Mn2Fe3Ni3O16,0.0
mp-766770,LiFePO4,3.3629000000000002
mp-766772,LiFePO4,3.4326999999999996
mp-766777,LiFePO4,3.4966999999999997
mp-766778,Mn2F5,0.0
mp-770297,Li4Cr3NiO8,0.0
mp-770308,Li24Mn5Cr7O36,1.0070000000000001
mp-770311,Li4AlCr3O8,3.2039999999999997
mp-770322,Rb2PrO3,0.0
mp-770327,Li4Ti3Fe3(CoO8)2,0.0
mp-770328,Li4Cr3FeO8,2.1696999999999997
mp-770330,LiVBO4,0.20860000000000012
mp-770331,Li2Ni2(SO4)3,3.8594000000000004
mp-770333,Li2VBO4,2.2750999999999997
mp-770337,Fe5Ni(PO4)6,0.0
mp-770348,Li2VSiCO7,1.8635000000000002
mp-770350,Li3Cu4NiO8,0.0
mp-770353,LiCr2(SO4)3,0.0
mp-770355,Li4Cr3CoO8,0.0
mp-770356,Na6Fe2B4SO16,0.0
mp-770357,Li2AlNiO4,1.8098999999999998
mp-770365,LiAlVO4,0.36549999999999994
mp-770367,LiV2(SO4)3,0.0
mp-770370,V3BO6,1.2364999999999995
mp-770372,CeHfO4,1.8098999999999998
mp-770380,Ta3InO9,2.8472999999999997
mp-770385,Li2Fe3BiO8,0.0
mp-770392,BaLaBr5,3.1517999999999997
mp-770400,Li2AlNiO4,1.6721000000000001
mp-773563,Li4Ti2V3Cr3O16,0.9931999999999999
mp-773566,Li2MnFe(BO3)2,3.1445999999999996
mp-773573,V2Sb(PO4)3,0.0
mp-773582,LiTe(H3N)4,1.2814999999999999
mp-773588,Sc6N2O5,0.0
mp-773596,Na7(CuO3)2,0.0
mp-773598,TiFe5(PO4)6,1.3659999999999999
mp-773600,LiVSnO4,0.0
mp-773604,Na3Co(BO3)2,1.0233999999999999
mp-773607,LiTiNiO4,0.0
mp-773610,Na2FeAsCO7,2.1418999999999997
mp-773611,Na2Ti3Cr(PO4)6,0.0
mp-773620,Li4Mn3Nb3(SbO8)2,0.0
mp-773621,Ni6OF11,0.9058999999999999
mp-773626,Co2OF3,0.0
mp-773646,InP2H9(NO4)2,3.6990999999999996
mp-773671,MnFe(PO4)2,0.0
mp-773672,MnFe(PO4)2,0.0
mp-773674,Li4Ti3V3(FeO8)2,1.1950000000000003
mp-773676,Ni(SO4)2,0.0
mp-773677,Mn3CuNi2(PO4)6,0.0
mp-773678,Na2LiFePCO7,3.6296999999999997
mp-773697,Li2VSiCO7,1.9614000000000003
mp-773698,Li4V3Cr3(FeO8)2,0.9240999999999997
mp-773707,Li4Ti3Mn2V3O16,0.9531000000000001
mp-773709,Li3Fe(NiO3)2,0.0
mp-773711,Ti2Sb(PO4)3,0.0
mp-773719,LiFe23O32,0.49629999999999974
mp-778688,Fe6O5F7,1.3921999999999999
mp-778695,Li3Co3NiO8,0.0
mp-778696,Fe6O5F7,1.0713000000000001
mp-778703,Li4Mn3F10,2.996
mp-778706,Fe6O5F7,1.1025000000000003
mp-778708,Fe5O3F7,1.414
mp-778722,Na2FeO3,0.09160000000000001
mp-778723,Li3MnFe2(BO3)3,2.7702999999999998
mp-778728,Li2MnVP2(HO5)2,0.46629999999999994
mp-778729,Mn3(OF2)2,0.0
mp-778735,Mn6OF11,0.39459999999999995
mp-778751,Mn6O5F7,0.0
mp-778757,Na2CoO3,0.0
mp-778758,Li4Ti3Fe2Cu3O16,0.0
mp-778767,Li2FeBPO7,0.22659999999999997
mp-778768,Li2Co3NiO8,0.0
mp-778769,LiV6O7F5,1.0899999999999999
mp-778770,Li2MnV(P2O7)2,0.28690000000000015
mp-778773,Fe5O3F7,1.3015999999999999
mp-778775,Li2Mn3(BO3)3,0.0
mp-778779,Na2CoO3,0.0
mp-778782,Fe6O7F5,0.0
mp-778785,Li2Cr3TeO8,0.0
mp-853161,CoOF,0.0
mp-853163,Li4Co(OF)2,1.8577999999999997
mp-853166,Na3Mn5O12,0.0
mp-853177,Nb3V(PO4)6,0.0
mp-853181,Li4V3Fe2Sb3O16,0.0
mp-853184,NiP6(WO8)3,1.8926000000000003
mp-853185,Li4Ti2Ni3Sb3O16,0.0
mp-853187,LiTiMnO4,0.021600000000000286
mp-853188,Mn2Fe3Sn(PO4)6,0.0
mp-853193,Na6Mn2B4PO16,0.0
mp-853196,Mn6O7F5,0.0
mp-853198,V2Sn(PO4)3,0.0
mp-853200,Li2Mn3(BO3)3,0.0
mp-853211,Fe2O3F,0.0
mp-853212,Li4Mn3Cu3(WO8)2,0.0
mp-853213,Li2Mn3(BO3)3,0.0
mp-853219,Li2Cr2NiO6,0.0
mp-853224,Ti7(WO5)6,0.0
mp-853226,Mn2CrFe3(PO4)6,0.0
mp-853233,Fe10O9F11,0.9673000000000003
mp-853241,FeNi3Sn2(PO4)6,0.0
mp-853249,Li4Mn3OF8,1.7753999999999999
mp-853254,Fe10O9F11,1.1675999999999997
mp-853257,NaV10O15,0.0
mp-853353,Li4Fe3Sn2Sb3O16,0.0
mp-634984,Mg5(Si8Pd5)2,0.0
mp-636105,MnGa,0.0
mp-636198,CeCu,0.0
mp-636225,KLiNd2(MoO4)4,3.4236999999999997
mp-636291,PuGa6,0.0
mp-636525,Zr7Ni10,0.0
mp-636571,Co3(AsO4)2,1.7669000000000001
mp-636614,YPb2,0.0
mp-637052,Hf3(MnGa3)2,0.0
mp-637194,Cs3Sc2Cl9,3.9353000000000002
mp-637223,MnFeC5N6O,1.3475000000000001
mp-637224,Pu2O3,0.0
mp-637235,KC2N3,4.500500000000001
mp-637255,Ti2Sn3,0.0
mp-637263,Zr5AlNi4,0.0
mp-637295,ZnFeC5N6O,0.14360000000000017
mp-637308,Ce5Sn3,0.0
mp-637336,NaSbMoO5,3.3587999999999996
mp-637377,Ti2In5,0.0
mp-637427,PrIn2Pd,0.0
mp-680067,Ag2CSNClO4,2.5328999999999997
mp-680114,CdI2,2.3552999999999997
mp-680153,CdI2,2.3453999999999997
mp-680159,CsTa6PbCl18,0.0
mp-680171,KEu2CuS6,0.0
mp-680172,CdI2,2.341
mp-680372,C,0.7132000000000001
mp-723054,CdHSeNO6,0.0
mp-723378,KAlH6(OF3)2,6.9765999999999995
mp-723426,NaLiP2(H4O5)2,5.129099999999999
mp-730823,P6H24N6O19,0.0
mp-730945,KAl2P2H5O11,5.087899999999999
mp-730972,UP3H10ClO8,0.37829999999999986
mp-733443,Ca7Si6H4CO23,4.581099999999999
mp-733508,SmH5(SeO4)2,4.432
mp-733600,Sb3H36(C3I2)4,0.0
mp-733613,H6AuBrN2,3.7314000000000003
mp-733655,KH3(SO4)2,5.591200000000001
mp-733822,ScRe4H8NO20,0.0
mp-759728,Sb7(O2F3)3,2.7586999999999997
mp-759737,Ti3(SnO5)2,1.6193999999999997
mp-759742,LiCu4(PO4)3,0.0
mp-759750,BiOF,3.1626999999999996
mp-759754,Ti11O14,0.0
mp-759774,Na6Ti11O24,0.0
mp-759790,Ag2Hg5,0.0
mp-759861,Yb2P4O13,0.0
mp-759968,Na2BiO3,0.0
mp-760052,Hf2N2O,1.8812000000000006
mp-760060,Sb(SO4)2,0.0