task_id,pretty_formula,band_gap
mp-771102,Li4Ti3MnO8,0.0
mp-771746,Cr11Ni40Mo9,0.0
mp-771796,Mn3CuO8,0.0
mp-772038,Nb18P3O50,0.0
mp-772080,BaLaI5,2.5826000000000002
mp-772140,Ba2LaI7,2.8926999999999996
mp-772577,Li3Ni3SbO8,0.0
mp-772741,Li2Mn3SnO8,0.0
mp-773220,Li2Fe3SnO8,0.0
mp-773330,Li2Mn3SnO8,0.0
mp-773721,Mn2Cu(PO4)3,0.0
mp-774088,Li2NbCr3O8,1.8766000000000003
mp-775023,Li2Fe3SnO8,0.0
mp-777629,Mn2OF3,0.0
mp-779083,Li2V3SnO8,0.0
mp-779240,Na4Fe2C4SO16,0.9841000000000001
mp-781007,Li2MnH8(SO6)2,3.9353000000000002
mp-781112,Li8Fe7Co(PO4)12,0.0
mp-8124,YbCuSi,0.0
mp-8126,YCuSi,0.0
mp-8315,LiSmAlF6,0.0
mp-864894,Be3Rh,0.0
mp-864918,NpN2,0.0
mp-865880,Yb(Mg4Al3)4,0.0
mp-865934,YbF2,6.734500000000001
mp-9262,Cs2PtF6,2.814
mp-9387,TbCuGe,0.0
mp-9389,HoCuGe,0.0
mp-972733,Si3B,0.0
mp-972874,SeBr3,0.0
mp-973174,NaAg3,0.0
mp-974400,Kr,7.1796
mp-974743,Rb3V,0.0
mp-974866,Rb3Na,0.0
mp-975236,RbPtO3,0.0
mp-975255,RbPdO3,0.0
mp-975274,RbNaO3,0.0
mp-975284,RbIrO3,0.0
mp-975288,RbNpO3,0.0
mp-975291,RbLiO3,0.0
mp-975296,RbHoO3,0.0
mp-975299,RbInO3,0.0
mp-975308,RbGdO3,0.0
mp-975312,RbF3,0.0
mp-975322,RbFeO3,0.0
mp-975346,RbMnO3,0.0
mp-975347,NdGeO3,0.0
mp-975361,RbErO3,0.0
mp-975364,RbCuO3,0.0
mp-975373,RbNiO3,0.0
mp-975380,RbCdO3,0.0
mp-975382,RbCaO3,0.0
mp-975384,RbBiO3,0.0
mp-975385,RbBO3,0.0
mp-975386,RbDyO3,0.0
mp-975388,NdDy3,0.0
mp-975394,RbBeO3,0.0
mp-975405,RbAuO3,0.0
mp-975421,RbAgO3,0.0
mp-975425,RbAsO3,0.0
mp-975427,RbAlO3,0.0
mp-975439,Mn3S,0.0
mp-975443,InCuO3,0.0
mp-975452,Hg3Rh,0.0
mp-975463,RbAcO3,0.0
mp-975467,Mn3Hg,0.0
mp-975511,InSb3,0.0
mp-975521,NdMgO3,0.0
mp-975524,InGe3,0.0
mp-975530,RbAl,0.0
mp-975564,PuBO3,0.0
mp-975579,NdBeO3,0.0
mp-975588,PuPtO3,0.0
mp-975591,NdHf,0.0
mp-975596,PuIrO3,0.0
mp-975606,InN3,0.0
mp-975611,Ge3B,0.0
mp-975638,Pr3Hf,0.0
mp-975639,Pr3Er,0.0
mp-975644,BeF2,0.0
mp-976320,EuReO3,0.0
mp-976380,Nd(NiSb)2,0.0
mp-976893,Ni3Sb,0.0
mp-976949,Lu3In,0.0
mp-976952,NaPuO3,0.0
mp-976968,NaPdO3,0.0
mp-977057,NpAs3,0.0
mp-978499,SiAs3,0.0
mp-979274,UAg3,0.0
mp-980060,TbAg3,0.0
mp-981232,Ti3Nb,0.0
mp-981391,Hg3Ir,0.0
mp-988939,AlAs,0.0
mp-989515,LaMoN3,0.0
mp-989564,LaOsN3,0.0
mp-989577,LiTl2GaF6,4.262300000000001
mp-989602,LaReN3,0.0
mp-9906,Y(Re2Si)2,0.0
mp-997163,MnAuO2,0.0
mvc-11658,Mg(FeO2)4,0.0
mvc-12314,Y5Be6Fe3(SiO5)6,1.8256000000000001
mvc-13252,Ca5La10Mn14(NiO24)2,0.0
mvc-15239,AlCuO3,0.0
mvc-15351,Zn(CuN)2,0.0
mvc-15448,YNiO3,0.0
mvc-15452,YMoO3,0.0
mvc-15474,YSnO3,0.0
mvc-15475,AlAgO3,0.0
mvc-15476,AlBiO3,0.0
mvc-15521,YAgO3,0.0
mvc-15532,Zn(CrN)2,0.0
mvc-15603,MnAlO3,0.0
mvc-15605,AlWO3,0.0
mvc-4201,Mg3Ti2(GeO4)3,0.0
mvc-4356,Al(WO2)2,0.0
mp-1001834,HfN,0.0
mp-1002183,TcB,0.0
mp-10048,GaAs,0.0
mp-1006883,CoNi,0.0
mp-1009596,PdN,0.0
mp-1009822,SnC,0.0
mp-1009831,TaN,0.0
mp-1009835,TaC,0.0
mp-1009837,TcC,0.0
mp-10110,SiRh,0.0
mp-10130,U2(Ni7B2)3,0.0
mp-1014231,Hf2Zn,0.0
mp-1014246,ZrB,0.0
mp-1014303,Cr3N2,0.0
mp-1014373,CrN2,0.0
mp-1017567,Hf2SN2,1.0751999999999997
mp-1017981,Hg,0.0
mp-1018152,LuAu2,0.0
mp-1019271,TaN2,0.0
mp-10197,ZrO,0.0
mp-10203,Ta5Si3,0.0
mp-1024990,LuB2Ir3,0.0
mp-1025071,YbB2Ir3,0.0
mp-1025137,NpNi5,0.0
mp-1025345,Ti2CrTe4,0.0
mp-1030,SbPt7,0.0
mp-1030964,KMg6CO8,0.0
mp-1033587,RbMg6BO8,0.0
mp-1037668,YMg30TiO32,0.0
mp-1037910,Mg30MnCrO32,1.9595000000000002
mp-1039010,MgAl,0.0
mp-1039120,CaMg,0.0
mp-1039136,MgCd,0.0
mp-1039217,MgCd2,0.0
mp-1039273,CaMg5,0.0
mp-1039292,Ca3Zn,0.0
mp-1056579,Si,0.0
mp-10648,YbSe,2.2565999999999997
mp-1066751,Sr2UMn,0.0
mp-1069811,Hf2H2Pd,0.0
mp-1071423,VFeSb,0.0
mp-1072076,FeNi2,0.0
mp-10753,Er,0.0
mp-10765,Ho,0.0
mp-1077228,PrInPt4,0.0
mp-1077241,YCu2,0.0
mp-1077279,DyNi4Au,0.0
mp-1077290,ErCu4Au,0.0
mp-1077334,ErMnNi4,0.0
mp-1077393,TmB2Ir3,0.0
mp-1077399,NaAs2,0.0
mp-1077429,NbNi2,0.0
mp-1077442,CeAu2,0.0
mp-1077457,Eu,0.0
mp-1077518,ErCu4Pd,0.0
mp-1077596,EuInPt4,0.0
mp-1077743,BC5,0.0
mp-1077745,Fe2Ni,0.0
mp-1077790,NbFe2,0.0
mp-1077796,LaInPt4,0.0
mp-1078216,Sr2Ti2Bi2OF2,0.0
mp-1078341,EuNbO3,0.0
mp-1078349,La2BiN,0.0
mp-1078389,MoN,0.0
mp-1078445,Nd2BiN,0.0
mp-1078494,Cr2SiC,0.0
mp-1078587,Lu(CuSn)2,0.0
mp-1078699,NbPt3,0.0
mp-1079272,Sr2ZrVO6,0.0
mp-1079312,NdSb2Au,0.0
mp-1079316,Dy(GePt)2,0.0
mp-1079393,Co3Si,0.0
mp-1079582,VIr,0.0
mp-1079827,Ce(SnRh)2,0.0
mp-1079835,Mg(BrN3)2,0.0
mp-1079998,Co(IN3)2,0.0
mp-1080079,U(AlAu)2,0.0
mp-1080144,Sm(NiSn)2,0.0
mp-1080457,K2SnN6,0.0
mp-1080625,Sr2LiReO6,1.8392000000000002
mp-1087477,La2TcNiO6,0.0
mp-1087479,CrCo3,0.0
mp-10904,AlPt,0.0
mp-1091396,Pr(AlAu)2,0.0
mp-1094054,Sr2FeCoO6,0.0
mp-1094230,MgSn3,0.0
mp-1094244,Mg3Sn,0.0
mp-1094260,ZrSn,0.0
mp-1094286,SrMg,0.0
mp-1094380,MgTi2,0.0
mp-1094556,MgSb2,0.0
mp-1094666,Mg3Al,0.0
mp-1094971,MgGa3,0.0
mp-1095060,Na3Cl2,0.0
mp-1095170,Sr2FeOsO6,0.0
mp-1097796,Cr3N2,0.0
mp-1099078,BaMg14Ni,0.0
mp-1099083,Mg14FeSi,0.0
mp-1099087,Mg14CoSn,0.0
mp-1099093,CeMg14Si,0.0
mp-1099115,CsCeMg14,0.0
mp-1099217,Mg14SiBO16,0.0
mp-1099236,Mg6NbCuO8,0.0
mp-1099238,HfMg6FeO8,0.0
mp-1099242,CsLiMg6O7,0.0
mp-1099304,CeMg6Cu,0.0
mp-1099336,SrMg6Si,0.0
mp-1099338,CsNaMg6,0.0
mp-1099685,BaSr7(FeO3)8,0.0
mp-1099757,Sm2Ti2O5,0.0
mp-1099881,Sr2TiMnO6,0.0
mp-1100159,SrHfMg6,0.0
mp-1100163,RbMg6Mo,0.0
mp-1100167,BaMg6Ga,0.0
mp-1100414,VSiRh,0.33969999999999967
mp-1100774,U3N,0.0
mp-1101754,Ti4H7,0.0
mp-1105842,MnV4(CuO4)3,0.0
mp-1111644,RbAuF3,0.0
mp-1112651,Cs3InBr6,2.6733000000000002
mp-11387,HfGa3,0.0
mp-11401,ScGa2Ni,0.0
mp-11495,LuRu,0.0
mp-11513,NbNi3,0.0
mp-11535,NpOs2,0.0
mp-12067,MnAl,0.0
mp-12608,CuPt7,0.0
mp-12697,Sc(MnSn)6,0.0
mp-12730,Ba2YbRuO6,0.0
mp-12875,ReO2,0.0
mp-12948,NaMgF3,6.620699999999999
mp-13444,LiSn,0.0
mp-13936,Sr2GdReO6,0.0
mp-13981,KPO3,4.821199999999999
mp-141,Yb,0.0
mp-1432,Be2B,0.0
mp-1483,SiRh,0.0
mp-15323,Nd(BOs)4,0.0
mp-15605,ScSi3Ni2,0.0
mp-15624,Sr2Sb,0.0
mp-15813,Mn3W3C,0.0
mp-1594,Ni2Ge,0.0
mp-16228,YS2,0.0
mp-1638,SrAl2,0.0
mp-16825,Gd3OsO7,0.0
mp-17682,Zr2Fe,0.0
mp-18127,Sr(Ni2Sn)2,0.0
mp-1865,UN,0.0
mp-18846,Na4(CoO2)7,0.0
mp-18904,Ba2NdMoO6,0.0
mp-19309,Be3Fe4Si3SO12,0.0
mp-19428,K2RbTbV2O8,3.3998999999999997
mp-19889,ThPb,0.0
mp-19943,YCuSb2,0.0
mp-19983,TiCuSn,0.0
mp-20044,La(NiAs)2,0.0
mp-20285,NaPt3O4,0.0
mp-203,NiTe,0.0
mp-20519,CdInS2,0.0
mp-20573,DyMgIn,0.0
mp-20630,Ho(MnSn)6,0.0
mp-20644,PuPt2,0.0
mp-20709,Ba2ScSbO6,0.0
mp-2086,PuS,0.0
mp-2098,CeOs2,0.0
mp-2120,HoAg2,0.0
mp-21467,TiCo2Sn,0.0
mp-21588,Sc2Fe3Si5,0.0
mp-21612,Mg6Cu16Si7,0.0
mp-21910,Nd3AlN,0.0
mp-2203,YB6,0.0
mp-22496,Nd3TlN,0.0
mp-22662,TiGaPt,0.0
mp-22907,DyBi,0.0
mp-2324,PrCd2,0.0
mp-2391,YbPd3,0.0
mp-24202,Th4H15,0.0
mp-24719,NiH,0.0
mp-24722,HRh,0.0
mp-2498,PrOs2,0.0
mp-25168,CaV4(AgO6)2,1.9174000000000002
mp-2536,Ni2B,0.0
mp-25614,LiNiPO4,3.9578999999999995
mp-25647,LiWO2,0.0
mp-2613,LaCu5,0.0
mp-2644,CoSb,0.0
mp-27,Si,0.0
mp-27910,Bi2Te2S,0.43679999999999986
mp-2812,HoFe5,0.0
mp-28618,Y3(Fe31B7)2,0.0
mp-28705,CaB2Rh3,0.0
mp-2906,Ho(NiP)2,0.0
mp-29243,Ba3SnO,0.0
mp-2938,Tm(FeSi)2,0.0
mp-29619,Sr2Bi,0.0
mp-29658,ZrNiH3,0.0
mp-30374,DyInAu2,0.0
mp-30422,Sr7Au3,0.0
mp-30603,ZrCu5,0.0
mp-30615,Er6Zn23,0.0
mp-30661,ScGaPd2,0.0
mp-30870,SmZn12,0.0
mp-313,YC2,0.0
mp-31473,K2Hg7,0.0
mp-3698,SrAlSi,0.0
mp-3893,Tb(CoB)2,0.0
mp-4047,Cs2SiF6,6.885199999999999
mp-504617,Ti3Co5B2,0.0
mp-504674,Ba2EuReO6,0.0022999999999999687
mp-505242,Ru(OF3)2,0.0
mp-505432,SmBeF4,0.0
mp-505537,Al3(Co10B3)2,0.0
mp-505538,Ti3Al2NiC,0.0
mp-505544,Co21(B3Sb)2,0.0
mp-505546,GdMnB4,0.0
mp-505574,Co2Mo4C,0.0
mp-505626,Cr12P7,0.0
mp-510486,Ta3Al2CoC,0.0
mp-540833,V2Co3O8,1.741
mp-541432,Mn(Bi3O5)4,0.0
mp-541940,Cr6Si7Ni16,0.0
mp-542286,Ba4Na(RuO4)3,0.0
mp-543019,GdNi2,0.0
mp-551269,Ba2LaSbO6,3.9633000000000003
mp-554858,Cs2NaMnF6,0.0
mp-5553,Nd(CoB)2,0.0
mp-556585,MnF2,2.7674999999999996
mp-556809,Sr11(OsO6)4,0.0
mp-557852,Na3Li3V2F12,0.0
mp-558207,Eu5Si3O12F,0.0
mp-567490,Hf5Re24,0.0
mp-568168,Rb(In3Au2)2,0.0
mp-569200,Eu(Al2Fe)4,0.0
mp-569321,Mn2Ru(CN)6,1.9347999999999999
mp-569775,ZrAl3,0.0
mp-570362,Sr5In3,0.0
mp-571520,Si,0.0
mp-571655,B4C,0.0
mp-579,CrC,0.0
mp-582240,Sm13Cd58,0.0
mp-5984,Y(BRh)4,0.0
mp-606503,Ca3InAu3,0.0
mp-614777,NiF3,0.0
mp-622107,CeCd2,0.0
mp-626503,V2HO4,0.0
mp-636264,La(CuSn)2,0.0
mp-636498,In3Ir,0.0
mp-639751,I,0.0
mp-653337,Ba4Yb(CuO3)3,0.0
mp-667342,Bi12PbO20,1.6818999999999997
mp-669393,Dy2Fe3Si5,0.0
mp-673,HoNi2,0.0
mp-675692,LiTi2O4,0.0
mp-680531,CaZn3,0.0
mp-687247,K5YCo2(NO2)12,0.0
mp-697994,Cu3H4SO8,0.0
mp-699331,Li3(WO3)8,0.0
mp-704116,KMn2Zn3(Si2O5)6,0.0
mp-705519,Ni15O16,0.0
mp-7248,U(Al2Cu)4,0.0
mp-753304,Hg,0.19489999999999996
mp-754586,Li8BiO6,0.0
mp-754699,NaTi2O3,0.0
mp-755615,Li3Ti4O8,0.0
mp-755658,CePrO2,0.0
mp-758890,LiAg2F4,0.0
mp-759324,Yb(Bi3O5)4,0.0
mp-761493,KMn6O12,0.0
mp-761528,LiMnPO4,3.061
mp-761600,Zn2Fe7O12,1.1355999999999997
mp-761994,LiFeCO4,1.9245999999999999
mp-763196,MnOF,0.0
mp-763528,LiV4(PO4)3,2.1191999999999993
mp-764286,VOF,1.9600999999999997
mp-765472,KTi6O12,0.0
mp-765498,LiVOF3,2.4153000000000002
mp-7655,BaSi2,0.0
mp-765655,Na2Li4Ni2C4SO16,3.5957999999999997
mp-765787,LiNiOF,2.243
mp-765848,Co3TeO8,0.0
mp-768122,NaBiPCO7,0.0
mp-769405,Ho(Bi3O5)4,0.0
mp-769776,Li2CoGeO4,2.402
mp-769959,Li4CrCu3O8,0.0
mp-770035,LiCo2(SO4)3,0.0
mp-771719,Li4TiNi3O8,0.0
mp-771740,Mn3TeO8,0.0
mp-773275,Li4Ti3CrO8,0.0
mp-773467,Li2Ni3WO8,0.0
mp-774127,Li3Mn4O8,0.0
mp-776655,Ti2O3,0.0
mp-777522,LiFeF3,3.2828999999999997
mp-777964,Na2BiO3,0.0
mp-779254,Co2O3F,0.0
mp-780625,Tb5O9,0.0
mp-813,ScAl2,0.0
mp-8368,Pr3GaC,0.0
mp-8425,Li8TbO6,0.0
mp-849394,Li2MnSiO4,2.9642999999999997
mp-849964,Li2V3CrO8,1.4501999999999997
mp-850099,CuS2,0.0
mp-850480,Li3CrCo3O8,0.0
mp-8605,SrSbPt,0.0
mp-861601,PuPd3,0.0
mp-861883,Ac2CuIr,0.0
mp-862612,ScPaTc2,0.0
mp-862716,LiAg3,0.0
mp-862977,Pm2AgIr,0.0
mp-8636,Nb,0.0
mp-8639,Ru,0.0
mp-8641,W,0.0
mp-864766,NaMgSO4F,5.611800000000001
mp-864915,HfBr3,0.0
mp-865088,MnGaIr2,0.0
mp-865121,NaSrAu2,0.0
mp-865277,TmZrRu2,0.0
mp-865278,NbAlOs2,0.0
mp-865365,Tm2NiIr,0.0
mp-865380,Tm2PdPt,0.0
mp-865985,CdPd3,0.0
mp-865991,YbSmZn2,0.0
mp-866007,DyMgTl2,0.0
mp-866040,CaCeHg2,0.0
mp-866816,CaSnS3,0.0
mp-866871,Ca4SnS6,1.8131999999999997
mp-867277,Ho2MgAl,0.0
mp-867364,LiTmPd2,0.0
mp-867501,Sc2Ni,0.0
mp-867754,Ta4Ni2C,0.0
mp-9220,SmNi2B2C,0.0
mp-9584,Nd(BIr)4,0.0
mp-971633,NaFeO2,1.8424999999999998
mp-971701,ZnAs3,0.0
mp-972249,Sr3Bi,0.0
mp-972373,Tl,0.0
mp-972420,YErAg2,0.0
mp-972493,Sm2MgRu,0.0
mp-972536,Sm2TlAg,0.0
mp-973022,ScRu3,0.0
mp-973278,KSr3,0.0
mp-973535,K3Sc,0.0
mp-974315,RuI,0.0
mp-974820,Rb3Tc,0.0
mp-974940,Rb3Mg,0.0
mp-975028,Rb3Cd,0.0
mp-975199,RbSr3,0.0
mp-975882,Li3Cu,0.0
mp-977550,ZrScOs2,0.0
mp-978496,SiB4,0.0
mp-978520,SmDyRu2,0.0
mp-982381,NaCu3,0.0
mp-982393,Pm2ZnAg,0.0
mp-984762,CsY,0.0
mp-984827,BaNd,0.0
mp-985299,Ag3N,0.0
mp-995196,CO3,0.0
mp-997047,AgBrO2,0.0
mp-998917,K2O2,2.0833999999999997
mvc-11089,VO2,0.0
mvc-11093,MnO2,0.0
mvc-11154,VO2,0.0
mvc-11254,Ca(FeS2)2,0.0
mvc-12125,FeO2,0.0
mvc-14626,Mg(CoN)2,0.0
mvc-3885,Mg3Si3(MoO6)2,3.297999999999999
mp-1008923,CuN,0.0
mp-1009828,BaSiC,0.25519999999999987
mp-1025315,Mn(AlTe2)2,0.32449999999999957
mp-1029418,KSi2N3,3.7106000000000003
mp-1029573,Ba3GaN3,0.28049999999999997
mp-10426,Nb2O5,1.8521999999999998
mp-10748,TaCu3S4,1.9231000000000003
mp-11814,Rb2Au3,0.0
mp-12724,SrZn,0.0
mp-14232,LiBO2,7.2810999999999995
mp-14364,Cs2LiAsO4,3.7302000000000004
mp-15687,KZnAs,0.20110000000000006
mp-17024,Ba2NbN3,1.9578000000000002
mp-17486,Ho3CuSiS7,1.8279999999999994
mp-18179,Cd4SiS6,1.434
mp-18893,Ca2Mn3O8,1.4426999999999999
mp-18984,Na2ZrNi(P2O7)2,3.7889999999999997
mp-19242,YNiO3,0.0
mp-20175,Sc2InC,0.0
mp-21255,FeGe,0.09649999999999981
mp-22261,InCuTe2,0.0029999999999992255
mp-22958,KBrO3,3.8455000000000004
mp-23617,Mg3B7ClO13,6.0062999999999995
mp-23672,PH6NO4,5.506399999999999
mp-24052,CaMgNiH4,1.8729999999999998
mp-25537,Fe(WO4)2,0.0
mp-28261,Na4SnO3,1.8885999999999998
mp-29365,Li5BiO5,1.3597000000000001
mp-29491,HS8N,2.6047000000000002
mp-30159,AuBrF6,1.9126999999999998
mp-30294,Sr2SnS4,2.4697999999999998
mp-30743,TmIr2,0.0
mp-3107,Ga3PO7,3.1409000000000002
mp-31214,Ti3P,0.0
mp-31954,Mn5(P3O11)2,0.0
mp-3196,NdGaO3,3.4528999999999996
mp-33112,Sc2H5,0.0
mp-33932,NbHO3,2.6275999999999997
mp-34042,KY3F10,5.996700000000001
mp-34330,MgAl2O4,4.356599999999999
mp-35530,LiMn4O8,0.0
mp-36921,Mn2CuO4,0.0
mp-37,Th,0.0
mp-37906,LiMgN,2.2706999999999997
mp-37920,AgAuS2,0.21299999999999963
mp-37990,AlPO4,5.459099999999999
mp-39249,BaLaMgRuO6,0.24759999999999938
mp-39259,BaLaZnRuO6,0.37899999999999956
mp-40226,Na4Ga3Si3IO12,3.6069999999999998
mp-4412,La4Se3O4,1.3261000000000003
mp-4627,CoAsS,0.9407000000000005
mp-504970,UH3,0.0
mp-539,Ga2S3,1.6980999999999997
mp-540118,MnPO4,0.36790000000000006
mp-540199,LiNi2(PO4)3,0.0
mp-554203,Li4Ga3Si3ClO12,4.4117999999999995
mp-554206,Cs2Al2As2O7,3.6603000000000003
mp-554791,RuO4,2.4250999999999996
mp-554845,Na2Zn2O3,1.2476000000000003
mp-555166,BaAg2SnS4,0.36030000000000006
mp-555606,Na10Be4Si4O17,3.9402999999999997
mp-556916,GaAgS2,1.0178000000000003
mp-557653,SiO2,4.1137999999999995
mp-559001,CrFe(BiO3)2,1.9969000000000001
mp-561826,Cr3CuO8,0.49629999999999974
mp-567809,AgI,1.596
mp-569334,NdMn2,0.0
mp-569600,Ge3As4,0.15479999999999983
mp-569708,TiPt3,0.0
mp-569711,K5Nb(CN)8,1.7548000000000001
mp-570922,MgCl2,4.906000000000001
mp-571090,ErMn2,0.0
mp-5777,BaTiO3,2.2929999999999997
mp-5928,Al2CdS4,2.7262999999999997
mp-5986,BaTiO3,1.7227999999999999
mp-618177,K2ZnCl4,4.407500000000001
mp-622295,NaMo(PO4)2,2.4920999999999998
mp-625142,Re2H4O9,1.9464000000000001
mp-626506,NaHO,2.7883999999999998
mp-626543,H3NO,2.4233000000000002
mp-626843,Ni(HO)2,1.8699999999999999
mp-631345,KZr2Nb,0.0
mp-631417,ReRuCl2,0.0
mp-642725,CaHClO,5.327
mp-646824,Ca3Ag8,0.0
mp-656,LuS,0.0
mp-66,C,4.1128
mp-672191,CeInAg2,0.0
mp-675124,In4SnS8,0.24070000000000036
mp-676020,BaCO3,4.017799999999999
mp-7456,SnF2,3.2628999999999997
mp-753775,BaCaI4,2.7144999999999997
mp-755231,LiTeO3,2.1414999999999997
mp-755891,CsLiH4SO5,4.507499999999999
mp-757074,BaCa2I6,3.8624000000000005
mp-760360,Hf3N2O3,3.2885999999999997
mp-760432,Cu2O3,0.12380000000000013
mp-761033,Hf3N2O3,3.1517999999999997
mp-761467,LiFePO4,3.1047000000000002
mp-761828,LiCoPO4,2.7611999999999997
mp-761842,Hf3SnO8,3.5824999999999996
mp-7648,SiO2,5.377400000000001
mp-764810,LiMnF4,2.7813999999999997
mp-765875,LiMnPO4,3.5997999999999997
mp-767009,Li4Mn2OF7,0.42490000000000006
mp-767953,Li2Si3NiO8,4.393199999999999
mp-768230,SmTaO4,3.4665999999999997
mp-770980,Li4TiMn(WO6)2,1.1055000000000001
mp-774922,Ti3TeO8,3.1569999999999996
mp-779416,VOF2,1.7086999999999999
mp-780155,Li9Fe3(OF7)2,1.8077999999999999
mp-801,Mo3Os,0.0
mp-806,PuO,0.0
mp-850468,LiTiV2O6,1.3928000000000003
mp-850895,Li2VOF3,1.6824000000000001
mp-861728,PuSbPd2,0.0
mp-861991,PaMn2Al,0.0
mp-862256,Cu2PdAu,0.0
mp-862336,Sc2IrPd,0.0
mp-862360,Sc2NiIr,0.0
mp-862554,LiEr2Ir,0.0
mp-862666,DyGaRh2,0.0
mp-862728,Pm2ZnRu,0.0
mp-862737,LiHgPd2,0.0
mp-862760,PrCdAg2,0.0
mp-862774,LiInPt2,0.0
mp-862902,PmDyMg2,0.0
mp-862913,PmHgRh2,0.0
mp-862944,Er2CuRu,0.0
mp-862949,NaPmTl2,0.0
mp-863735,ErRh2Pb,0.0
mp-864900,Hg,0.6925
mp-865051,NaCa2Tl,0.0
mp-865107,NaMgPb2,0.0
mp-865165,HfScCo2,0.0
mp-865191,FeGeRu2,0.0
mp-865200,MnGa2Tc,0.0
mp-865320,Lu2PdRu,0.0
mp-865438,LuTlRh2,0.0
mp-865497,V2ReOs,0.0
mp-865652,TiMn2Si,0.0
mp-865743,Ga2IrRh,0.0
mp-865752,YbGa2Ir,0.0
mp-865811,LaYbAg2,0.0
mp-865816,YbPd2Pb,0.0
mp-865847,Lu2CuPt,0.0
mp-865867,Li2YTl,0.0
mp-867901,ScTaTc2,0.0
mp-8703,Na3SbSe4,0.9766000000000001
mp-972424,TbYbPt2,0.0
mp-972448,SmBS3,2.389
mp-972511,Sm2AgSn,0.0
mp-973414,Lu2RuAu,0.0
mp-973957,La2ZnAg,0.0
mp-973979,LiFePd2,0.0
mp-984604,TiPHO5,2.8785999999999996
mp-985571,LiAg(CO2)2,2.6889999999999996
mp-989604,YMoN3,1.8359999999999999
mp-990424,C,0.19369999999999998
mp-1004373,LiMnO2,1.0352999999999999
mp-1004375,MgMn4O8,0.23139999999999983
mp-10108,NpP,0.0
mp-1014226,Zr3ZnN,0.0
mp-1014252,Hf3ZnN,0.0
mp-1014257,Ti3ZnN,0.0
mp-1014307,ZrC,0.0
mp-1016231,CsMg3,0.0
mp-1017579,In2Au3,0.0
mp-1018045,Rb,0.0
mp-1019524,Ba3P6(N4O3)2,4.546600000000001
mp-1019601,CeZr7O16,2.1228000000000002
mp-1019724,LiEuO2,0.0
mp-1027023,TeMoWSeS2,0.0
mp-1027033,Te3MoWS,0.0
mp-1027034,Te2MoWS2,0.0
mp-1027036,Te6MoW3S2,0.0
mp-1027049,TeMoWSe2S,0.0
mp-1027050,TeMoWSeS2,0.0
mp-1027058,Te2MoWS2,0.0
mp-1027061,Te2MoW3(Se2S)2,0.0
mp-1027070,Te2Mo(WS2)3,0.0
mp-1027078,TeMoWS3,0.0
mp-1027093,TeMoWSeS2,0.0
mp-1027095,Te2Mo3W(SeS2)2,0.0
mp-1027106,TeMoWSeS2,0.0
mp-1027107,TeMoWSe2S,0.0
mp-1027119,TeMoWSe2S,0.0
mp-1027132,Te4Mo3WS4,0.0
mp-1027134,Te2MoW3(Se2S)2,0.0
mp-1027135,TeMoWSe2S,0.0
mp-1027137,Te2Mo3W(Se2S)2,0.0
mp-1027138,TeMoWSe2S,0.0
mp-1027144,Te2Mo3W(SeS2)2,0.0
mp-1027149,Te2Mo3W(Se2S)2,0.0
mp-1027153,Te2MoW3(SeS2)2,0.0
mp-1027155,Te2MoW3(SeS2)2,0.0
mp-1027164,TeMoWSeS2,0.0
mp-1027171,TeMoWSeS2,0.0
mp-1027172,Te4MoW3S4,0.0
mp-1027173,TeMoWSeS2,0.0
mp-1027174,Te2MoW3(SeS2)2,0.0
mp-1027175,Te2Mo3W(SeS2)2,0.0
mp-1027278,Te3MoWS,0.0
mp-1027286,TeMoWSeS2,0.0
mp-1027302,Te2Mo3W(SeS2)2,0.0
mp-1027303,TeMoWS3,0.0
mp-1027304,Te2Mo3WS6,0.0
mp-1027305,Te4Mo3W(SeS)2,0.0
mp-1027309,TeMoWSe2S,0.0
mp-1027334,Te4Mo3W(SeS)2,0.26639999999999997
mp-1027337,Te2Mo3W(Se2S)2,0.0
mp-1027341,Te2MoWS2,0.0
mp-1027348,TeMoWSe2S,0.10840000000000005
mp-1027350,TeMoWSeS2,0.0
mp-1027351,Te4Mo3W(SeS)2,0.19159999999999977
mp-1027352,Te4Mo3WS4,0.0
mp-1027355,Te4Mo3WS4,0.0
mp-1027359,TeMoWSeS2,0.0
mp-1027372,Te2MoWSeS,0.0
mp-1027375,Te2MoWS2,0.0
mp-1027379,Te2Mo3WS6,0.0
mp-1027383,Te4Mo3WS4,0.0
mp-1027395,Te2Mo(WS2)3,0.0
mp-1027404,Mo3W(Se3S)2,0.734
mp-1027407,Te4Mo3W(SeS)2,0.0
mp-1027410,Te2Mo2SeS,0.0
mp-1027412,TeMoS,0.0
mp-1027424,Te2Mo3W(SeS2)2,0.0
mp-1027436,Te4Mo3WS4,0.0
mp-1027437,Te2Mo3W(Se2S)2,0.0
mp-1028689,Te4MoW3(SeS)2,0.0
mp-1028690,TeWS,0.0
mp-1028694,Te4MoW3(SeS)2,0.0
mp-1028704,TeW2Se2S,0.0
mp-1028708,Te6MoW3S2,0.0
mp-1028709,Te2MoW3(Se2S)2,0.0
mp-1028710,TeW2SeS2,0.0
mp-1028728,Te2MoW3(Se2S)2,0.0
mp-1028729,TeW2Se2S,0.0
mp-1028730,Te4MoW3Se4,0.23220000000000063
mp-1028732,Te2W2SeS,0.0
mp-1028743,TeW2Se2S,0.0
mp-1028748,Te2Mo(WSe2)3,0.0
mp-1028749,TeWSe,0.23930000000000007
mp-1028755,Te3W2S,0.0
mp-1028757,TeW2SeS2,0.0
mp-1028761,TeWS,0.0
mp-1028765,Te2MoW3(Se2S)2,0.0
mp-1028771,Te2W2SeS,0.0
mp-1028791,Te4MoW3(SeS)2,0.0
mp-1028793,TeW2SeS2,0.0
mp-1028795,Te2MoW3(SeS2)2,0.0
mp-1028812,Te4MoW3S4,0.0
mp-1028821,TeW2Se2S,0.0
mp-1028827,Te2Mo(WSe2)3,0.0
mp-1028828,Te2MoWSe2,0.05779999999999941
mp-1028848,Te2Mo(WSe2)3,0.0
mp-1028850,Te2MoW3(Se2S)2,0.0
mp-1028851,Te4MoW3Se4,0.014100000000000001
mp-1028854,Te2MoWSeS,0.0
mp-1028869,Te3W2S,0.0
mp-1028871,Te2MoW3(SeS2)2,0.0
mp-1028873,TeMoWSe2S,0.0
mp-1028881,TeMoWSe2S,0.0
mp-1028887,TeW2Se2S,0.0
mp-1028901,Te2MoW3(Se2S)2,0.0
mp-1028910,Te4MoW3(SeS)2,0.0
mp-1028911,Te2MoW3(Se2S)2,0.0
mp-1028912,Te2W2SeS,0.0
mp-1028919,Te2MoWSeS,0.12670000000000003
mp-1028932,Te4MoW3S4,0.0
mp-1028933,TeMoWSeS2,0.0
mp-1028939,TeMoWSe2S,0.0
mp-1028948,TeMoWSe2S,0.0
mp-1028951,Te2MoW3(Se2S)2,0.0
mp-1028959,TeMoWSe2S,0.0
mp-1028971,Te2MoW3(Se2S)2,0.0
mp-1028975,Te2MoWS2,0.0
mp-1028976,Te4MoW3S4,0.0
mp-1028979,TeMoWSe3,0.0
mp-1028980,Te4MoW3(SeS)2,0.0
mp-1028985,Te3MoWS,0.026100000000000012
mp-1028991,Te2MoW3(SeS2)2,0.0
mp-1028999,Te2Mo(WS2)3,0.0
mp-1029014,TeMoWSeS2,0.0
mp-1029016,Te2MoW3(SeS2)2,0.0
mp-1029021,Te2MoWSeS,0.0
mp-1029025,TeMoWSe2S,0.0
mp-1029044,Te2MoW3(SeS2)2,0.0
mp-1029066,Te2MoWSe2,0.12399999999999967
mp-1029072,Te2MoWS2,0.0
mp-1029074,Te4MoW3(SeS)2,0.0
mp-1029076,Te2Mo(WS2)3,0.0
mp-1029078,Te2MoW3(Se2S)2,0.0
mp-1029101,Te4MoW3Se4,0.13239999999999963
mp-1029112,Te3MoWS,0.0
mp-1029113,Te2MoW3(SeS2)2,0.0
mp-1029115,Te2MoWS2,0.0
mp-1029116,TeMoWSe2S,0.0
mp-1029118,Te2Mo(WS2)3,0.0
mp-1029121,Te2MoWSeS,0.0
mp-1029125,Te2MoW3(SeS2)2,0.0
mp-1029139,Te4MoW3S4,0.0
mp-1029140,Te2MoW3(SeS2)2,0.0
mp-1029141,Te2MoW3(SeS2)2,0.0
mp-1029145,Te4MoW3(SeS)2,0.0
mp-1029147,Te2MoW3(Se2S)2,0.0
mp-1029148,Te2MoWSeS,0.0
mp-1029153,TeMoWSe2S,0.0
mp-1029154,Te2MoWSeS,0.0
mp-1029155,TeMoWSeS2,0.0
mp-1029165,TeMoWSe3,0.0
mp-1029166,Te4MoW3S4,0.11129999999999995
mp-1029176,TeMoWSe2S,0.0
mp-1029189,Te6MoW3S2,0.0
mp-1029190,Te2MoW3(Se2S)2,0.0
mp-1029213,Te2MoWSeS,0.0