task_id,pretty_formula,band_gap
mp-571548,SbH16C4N2Cl5,3.2333000000000003
mp-571553,SnH18C6Br3N,3.4837
mp-571559,CdI2,2.3544
mp-571567,CdI2,2.4482
mp-571568,CdI2,2.3543000000000003
mp-571569,CdI2,2.3601
mp-571578,CdI2,2.3557
mp-571579,CdI2,2.4388
mp-571582,TlHg3Sb2Br3,0.6482000000000001
mp-571583,CdI2,2.3623000000000003
mp-571592,CdI2,2.386
mp-571593,CdI2,2.3731
mp-571595,CdI2,2.38
mp-571603,CdI2,2.3923
mp-571605,CdI2,2.3857
mp-571607,CdI2,2.3546
mp-571613,CdI2,2.3903
mp-697787,LiCrP2O7,0.6371
mp-21497,Pb2SO5,3.1338
mp-31729,Li3Cr2(PO4)3,2.8167
mp-31746,Li3Cr(PO4)2,1.9816000000000005
mp-540534,MoPO5,1.1838000000000002
mp-540536,Mo2P3O13,1.6230000000000002
mp-540540,PaBr3O,1.7543
mp-540549,Al(PO3)3,5.7002
mp-540553,Te7(OF5)6,2.3632
mp-540558,S5N4O3,1.845
mp-540566,V2Hg2O7,1.2817999999999998
mp-540567,BaFe4O7,1.2527
mp-540575,ZnHg2H14C4N6O13,3.4328000000000003
mp-540586,Tl2SnO3,1.1414
mp-540592,Fe2(TeO3)3,2.1372000000000004
mp-540598,Ti4Tl2O9,2.8163000000000005
mp-540607,NaZnMoHO5,3.3523
mp-551741,Zn2P2O7,3.6447
mp-551816,YBi2IO4,1.3836000000000004
mp-551826,NbTlBr4O,1.2473
mp-551848,Li4CO4,6.1765
mp-551900,PrBi2BrO4,1.2269000000000003
mp-552120,YClO,4.2707000000000015
mp-552169,AgClO2,0.8895000000000001
mp-552200,Ba2TaBiO6,2.6759000000000004
mp-552234,SrBiBrO2,3.1575999999999995
mp-552292,SmBi2IO4,1.3042000000000002
mp-552454,SrTaNO2,0.7545000000000002
mp-552537,Sr2CuBrO2,2.3439
mp-552547,SrBiIO2,2.8643
mp-552552,Na4CO4,1.5496
mp-552604,YBi2ClO4,1.3088000000000002
mp-552738,TmBi2IO4,1.4258999999999995
mp-552857,TbBi2IO4,1.3266999999999998
mp-553082,PrBi2ClO4,1.1244
mp-553242,NdBi2BrO4,1.2198999999999995
mp-553243,YBi2BrO4,1.3350000000000004
mp-553347,La2O3,1.5337
mp-5537,NbAgO3,1.7878999999999998
mp-553880,ZnS,2.031
mp-553881,SiO2,3.5957
mp-553897,Ba2Si3O8,4.4855
mp-553898,GePbO3,2.6724
mp-553907,Rb3AgO2,1.5831
mp-553909,Tl2(SeO3)3,2.1587
mp-553912,NaZr2(AsO4)3,3.7453
mp-553916,ZnS,2.0265
mp-553921,Pm2O3,3.7666
mp-553925,Rb5B19O31,5.2851
mp-553939,CaCO3,4.7004
mp-553945,SiO2,5.6009
mp-553948,Tl4Hg3Sb2(As2S5)4,1.6628000000000005
mp-553956,P2Pb3O8,3.2968
mp-553958,Zn3(PO4)2,3.3332
mp-553961,ScNbO4,3.3047000000000004
mp-553962,Rb2LiNbS4,2.306
mp-553963,YbSeO3F,0.008400000000000019
mp-553965,RbLaNb2O7,1.9664
mp-553972,CuCSN,2.3965999999999994
mp-553976,CsTaPS6,1.7898999999999998
mp-553993,SiO2,5.6413
mp-554001,Nd3S3N,1.5240999999999998
mp-554003,Sr4Li(BO3)3,4.1874
mp-554004,ZnS,2.0337
mp-554006,SrCaSiO4,4.4796
mp-554012,SClO2F,4.6493
mp-555138,CoSeO4,1.9583
mp-555139,Zr2Cu3H32(O8F7)2,0.6984
mp-555151,ZnS,2.0245
mp-555159,Pr2O3,3.5518000000000005
mp-555165,SiO2,5.6892
mp-555173,UCO5,2.2611
mp-555178,Rb5H5(OF3)2,5.3515
mp-555184,SmTiClO3,3.2110000000000003
mp-555189,Rb2LiC3S3(OF)9,5.8783
mp-555194,SiHg3(SF3)2,2.7818
mp-555199,TlHgAsS3,1.5811000000000002
mp-555203,Sr5B3ClO9,3.9640999999999993
mp-555211,SiO2,5.6207
mp-557126,NaPr(Si3O7)2,4.789
mp-557130,Zn2TeCl2O3,3.6546
mp-557132,Os2O3F7,0.5983999999999999
mp-557146,TiAs2O7,2.5598
mp-557151,ZnS,2.0324
mp-557154,NaGaO2,2.7914
mp-557163,TaPbF7,5.1278000000000015
mp-557175,ZnS,2.0281
mp-557179,NaSbS2,0.4528999999999997
mp-557189,LiPO3,5.5752000000000015
mp-557211,SiO2,5.5535999999999985
mp-557213,Te2Xe(OF5)2,2.2917
mp-557233,AlTlF4,4.2383000000000015
mp-557236,Te2As2Se8S(OF6)2,1.3994
mp-557251,Tl2CS3,1.7532
mp-557256,RbP3PbO9,4.5591
mp-557258,Tl4Cu4(P2O7)3,0.22779999999999975
mp-557260,RbSb2F7,4.2682
mp-557263,H6CN2O3,3.3317
mp-557264,SiO2,5.4327000000000005
mp-557282,Rb2Ce(NO3)6,1.4909999999999999
mp-557289,TiP2Cl8O3,2.7257
mp-559460,Cs2Ti(Si2O5)3,3.2902
mp-559463,RbMgAs(H6O5)2,4.2177
mp-559480,Sn5W8O23,1.7194999999999996
mp-559493,TiPCl7O,2.6595
mp-559514,Nd4S3NCl3,3.0831
mp-559523,RbMgF3,2.2027
mp-559530,Ti5(PO5)4,2.891
mp-559540,RbZnSClO4,4.5378
mp-559545,SeO2,3.4255
mp-559550,SiO2,5.6097
mp-559554,Li2TeO3,3.9576
mp-561423,ZrTlCdF7,2.2065
mp-561434,Rb2Sn2Hg3S8,1.6569999999999998
mp-561441,Y2GeO5,4.0923
mp-561443,Ba3(PS4)2,1.9872000000000003
mp-561449,OsOF4,0.6713
mp-561457,CsAlSiO4,4.4582000000000015
mp-561465,TlSbO3,2.1507
mp-561467,YAg3(PS4)2,1.999
mp-561469,Nd6S4N3Cl,1.2028000000000003
mp-561476,PH8C2SNO2,4.5667
mp-561480,NaNiF3,4.6107999999999985
mp-568060,Na4Ge2Te5,1.3253
mp-568134,Cs2CdI4,2.8586
mp-568136,RbVBr3,0.5943
mp-568146,Pd(Se3Br)2,1.0267999999999995
mp-568170,TbCl3,4.3206
mp-568172,Ca3N2,1.3591000000000002
mp-568191,SrLuCuSe3,1.1246000000000005
mp-568192,RbMoIO6,2.6081
mp-568224,Sm3CuSe6,0.7010000000000001
mp-568228,RbLaSi(CN2)4,3.8549
mp-568231,RbMnBr3,1.2465000000000002
mp-568233,CdI2,2.3727
mp-568240,Zn3As2,0.17989999999999995
mp-568245,NbBr5,1.5990000000000002
mp-568252,Rb2Hg2PdCl8,1.7546
mp-568259,TaSi2PH18C6(NCl3)2,3.1119
mp-568263,GaSe,1.2081000000000002
mp-568284,SrI2,3.802
mp-568289,CdI2,2.3663
mp-568301,BiBr3,2.8692
mp-568313,SiSe2,1.8488
mp-568333,K2SnBr6,1.1709
mp-568350,Rb2ZnCl4,4.5226
mp-568358,Si2H15C5N,4.1646
mp-568381,RbAu(CN)2,3.1199
mp-568385,SrLiGaN2,1.8413
mp-568386,Ag10Te4Br3,0.774
mp-568394,MoCl3,0.5488999999999997
mp-569512,SbICl8,1.5838
mp-569531,Rb2CuBr3,1.8371
mp-569561,TeCl4,3.1163
mp-569569,Sm(AlCl4)2,0.14829999999999988
mp-569578,NbI5,0.9145
mp-569595,PbI2,2.4080000000000004
mp-571615,CdI2,2.3882
mp-571616,CdI2,2.4410000000000003
mp-571627,CaCl2,5.3328
mp-571638,Rb2Cu(BrCl)2,0.12799999999999995
mp-571642,CaCl2,5.5968
mp-571646,CdI2,2.3554000000000004
mp-571648,Rb2MnCl6,1.1995
mp-571653,C3N4,2.476800000000001
mp-571654,CdI2,2.3715
mp-571660,CdI2,2.4136
mp-571661,K2HgCl4,2.2969999999999997
mp-571667,CdI2,2.4047
mp-571668,CdI2,2.3944
mp-572124,SrTi2O5,1.9511
mp-572131,SbS8Cl5O,1.4808
mp-572283,SiO2,4.9688
mp-572284,SbXeOF9,2.2
mp-572361,Cs2Ti(PO4)2,3.5162
mp-572526,SbBr(OF3)2,1.9777
mp-572543,CsPr(PO3)4,5.4728
mp-572596,TlIn3S5,1.7185999999999997
mp-572597,SbPS4,2.0791
mp-572632,Mn2V2O7,1.4568
mp-572670,B2S3,2.4293
mp-572674,ReC2(IO)2,0.6295999999999999
mp-572726,SbSeCl7O,1.945
mp-572763,TaP4(SCl)5,2.1404
mp-572794,ReP(Cl2O)3,1.8656
mp-31753,RbCr3O8,1.8319
mp-31760,Sr2TaFeO6,2.0999
mp-31766,Fe2(MoO4)3,2.6649000000000003
mp-31788,Li3Fe2(PO4)3,2.6074
mp-540611,RbNd(PO3)4,5.451899999999998
mp-540615,Nb3Se5Cl7,0.9467
mp-540621,SrGa2(GeO4)2,3.0761
mp-540626,NiH8(IO5)2,3.6538
mp-540630,VFeO4,2.0493
mp-540640,Sr2Ti6O13,9.999999999976694e-05
mp-540644,Sn4SI6,1.2644999999999995
mp-540653,SrAlF5,7.0874
mp-540654,RbCdC3(SN)3,3.208
mp-540656,Sb(S8I)3,2.384
mp-554022,Sn2P2O7,3.5193000000000003
mp-554025,SNF,4.0441
mp-554053,SrGaBO4,3.7452
mp-554059,Sr2UZnO6,1.8036000000000003
mp-554063,SmSeClO3,4.3959
mp-554072,K2CO3,3.6203
mp-554085,Te(CF4)2,4.4043
mp-554094,CaMg2(SO4)3,5.7586
mp-554096,SnHg2(SBr)2,2.3372
mp-554111,Ti3Tl3(PO4)5,2.5328
mp-554115,ZnS,2.0181000000000004
mp-554134,SnS,1.668
mp-554137,MgSiO3,3.7809
mp-554147,Rb2Nb2P2S11,1.1636000000000002
mp-554153,SbS4N4Cl5,1.6012
mp-554160,K2CuP2O7,0.2617999999999999
mp-554171,Mg3(PO4)2,5.1024
mp-554172,Ba3Zr2S7,0.5038
mp-554175,SiO2,5.7494
mp-554183,ZrHg3(SCl3)2,2.5574
mp-554187,SnH21C7S4N(O3F)2,4.7629
mp-554195,Sb3As2S14(IF8)3,1.8039
mp-554207,TaBi4BrO8,1.7271999999999998
mp-554218,Ti4P6PbO24,2.7893
mp-554219,U(TeO3)3,1.7300000000000004
mp-554223,RbScAs2O7,3.5429
mp-554239,NaSbCO2F3,3.0980000000000003
mp-554243,SiO2,5.6227
mp-554253,ZnS,2.0288
mp-554258,SiO2,5.4489
mp-554259,SrAgB7O12,3.0005999999999995
mp-554267,SiO2,5.6122000000000005
mp-554272,Cu3SbS3,0.8347000000000007
mp-554273,AlPO4,5.4822
mp-554280,RbTh2(PO4)3,4.5631
mp-554289,AsS3(NF3)2,0.5929
mp-554317,RePCl8O,0.043299999999999984
mp-554320,P2Pd2O7,0.7162999999999999
mp-554328,NaSO4,3.5176000000000003
mp-555214,ZnS,1.5972999999999995
mp-555230,Rb2YGa(SiO3)4,4.1384
mp-555234,RbSbBrF3,3.7542
mp-555236,Tm2Te5O13,3.0624
mp-555237,PrSClO4,4.7016
mp-555255,SbSNF5,2.2126
mp-555259,UTe2PbO8,1.9725
mp-555267,CuHgSBr,0.5100000000000002
mp-555275,NbTe7Br5O,0.6358000000000001
mp-557302,S2NO,2.2777
mp-557304,Sr2SiCl2O3,5.1218
mp-557311,Sr2GeO4,3.5660000000000003
mp-557321,As4S3,2.471
mp-557322,Bi4Te2Br2O9,0.8599999999999994
mp-557330,Sr2B5ClO9,5.3411
mp-557354,Tm2Te4O11,3.2138
mp-557355,Rb2SiP4O13,5.166600000000002
mp-557362,AlPO4,5.5478000000000005
mp-557379,P2H6C4N2Cl2O,2.9631
mp-557381,Rb3U3Ge2O13,0.5333999999999999
mp-557388,Bi2MoO6,2.6394
mp-557404,V2Ni2O7,2.6664000000000003
mp-557406,NaB3O5,5.2573
mp-557410,NdTe2BrO5,2.3955
mp-557423,Na2B4O7,4.854
mp-557438,Sm2Ti3(BiO6)2,1.8995
mp-557450,Na2PtO3,1.4682000000000004
mp-557457,TmSeO3F,4.2903
mp-557458,NaZr2CoF11,3.2763
mp-557466,BiF3,3.9562
mp-557483,YbClF,6.0554
mp-557485,RbFeF4,2.9575000000000005
mp-557492,LiLa5Ti8O24,2.0496
mp-557493,MnP4O11,3.9178
mp-557517,Tb3CuGeS7,1.7968000000000002
mp-557521,PH8C2NO4,5.544499999999998
mp-557522,PCl2OF,4.9892
mp-557528,ScH3(CO2)3,3.4018
mp-557529,Na5P3O10,4.5621
mp-557531,Pb2S(O2F)2,3.7955
mp-557537,Zn4P6N12O,2.9652
mp-557540,Rb2AgSbS4,1.4011000000000002
mp-557552,Sr2CuF6,1.068
mp-557561,Sm6Si4S17,2.4769999999999994
mp-557562,TiH8C4NO10,0.01889999999999992
mp-557565,KC(NO2)3,2.1521
mp-557569,SmAsS,0.08270000000000087
mp-557570,TeAs(BrF2)3,3.0852000000000004
mp-557583,TlInAs2O7,2.992
mp-557585,Lu(PO3)3,5.6749
mp-557589,TlZn(PO3)3,4.5196
mp-557600,SbC2N(OF3)2,4.6214
mp-559560,Nd2Ti3(ClO4)2,2.9455
mp-559571,ZrB2O5,3.7946
mp-559573,UAgIO6,1.2937
mp-559590,PrGeBO5,3.9887
mp-559605,SiO2,3.695
mp-559607,TiTlPO5,2.3146
mp-559610,Rb2NaAl2(PO4)3,4.6181
mp-561487,Te4As2S(OF6)2,1.1831
mp-561488,SiO2,2.7733
mp-561489,AgTeO3,1.1591
mp-561490,PdSeO4,1.2024
mp-561492,ZnSb2(XeF4)6,2.5338
mp-561496,NaMg3Al(MoO4)5,3.551
mp-561507,Ca4Al6O13,3.6188
mp-561514,NaSrB5O9,5.2309
mp-561521,PH8C2NO2,5.0128
mp-561523,NbTlCl4O,2.1768
mp-561527,Rb3Zr2P5S18,1.9753
mp-561531,Y2Si2O7,4.5955
mp-561533,SbOF,3.3227
mp-561535,NaLuP2O7,5.6852
mp-561536,NaMgBO3,3.5852
mp-561542,Ta2MnO6,3.1393000000000004
mp-561545,Sn4P2O9,3.1616000000000004
mp-561547,SrSiO3,4.6026
mp-561551,Y2Si2O7,5.1759
mp-561582,WSBr4,1.2761
mp-568441,MgH2,2.0783
mp-568468,Yb5(AlSb3)2,0.060999999999999936
mp-568478,Nb6Tl2VCl18,0.2608000000000001
mp-568483,NbCl5,2.2917
mp-568493,In3SnI5,2.0773
mp-568498,Sm2(CN2)3,2.4814
mp-568525,Sr2SnSe5,0.908
mp-569623,Nb(SeBr)2,0.9702000000000002
mp-569626,MgCl2,3.3789999999999996
mp-569655,BN,3.746
mp-569666,CdI2,2.4072
mp-569677,Sr2IN,1.7917000000000003
mp-569679,ZnSe,1.9671
mp-569684,Zr(TeCl6)2,3.0734
mp-569704,Tl2Ni(CN)4,2.2822
mp-569710,RbNb3CuCl9,0.9794999999999998
mp-569715,CuBi(PSe3)2,0.6481000000000003
mp-572864,Rb5Th(PS4)3,2.0725
mp-572970,WSCl4,1.969
mp-5730,Ba(BO2)2,4.7852
mp-573051,ReO3F,3.0005
mp-573078,WSeS2Cl5,2.2777
mp-573109,Sm2Se5O13,3.6065
mp-573321,TePdI2,0.5150000000000001
mp-573340,Nb2Se17Cl12,1.3224
mp-573373,PICl8,1.6868
mp-573495,ICl,1.1579
mp-573567,Ti(NCl)3,2.318
mp-573815,ReI3,0.9469999999999998
mp-573974,Tl10Hg3Cl16,2.6482
mp-31817,Li2Fe(PO3)4,3.9524
mp-31837,LiFeP2O7,2.3937000000000004
mp-540675,SeCl4,3.0467
mp-540677,UFeO4,0.007400000000000517
mp-540682,Nb2CoO6,2.3241
mp-540688,SrIn2O4,1.8083
mp-540689,Ba2SnS4,2.3103
mp-540719,PbWO4,2.9616
mp-540737,ZrP2H4O9,3.2057
mp-540739,Ba3YIr2O9,0.01770000000000049
mp-554336,NbAg2(PS4)2,1.6183
mp-554344,Li3Al(BO3)2,4.593699999999999
mp-554351,SrHg2(ClO)2,1.6485
mp-554353,TiS4(NCl)5,1.4847
mp-554355,CaF2,5.1324
mp-554361,TcXeO4F5,2.0717
mp-554363,Pr2Ti3(ClO4)2,2.968
mp-554370,TiSCl6O,2.6221
mp-554376,Y4TiSi2(O3F2)3,2.7199
mp-554384,NaSb(PS3)2,2.0415999999999994
mp-554396,Mg2SiO4,4.1471
mp-554405,ZnS,2.0715000000000003
mp-554410,Ba2LaRuO6,0.2179000000000002
mp-554423,Y(PO3)3,5.6888999999999985
mp-554435,TcBi3O8,2.0021
mp-554440,CuSeO3,0.021500000000000075
mp-554441,NaTi2Ga5O12,2.7362
mp-554459,Pr6S4BrN3,1.2631
mp-554491,SiC(ClF)3,6.1728000000000005
mp-554503,ZnS,2.0201
mp-554523,TeBrO3F5,2.7381
mp-554526,KGd(PO3)4,3.1193
mp-554529,Ba2TiO4,4.2635
mp-554549,CaGeO3,2.5121
mp-554552,Zn3P2H2O9,3.3726000000000003
mp-554564,Ta2Bi4Br7O2,0.7267999999999999
mp-554574,Sb4Au(Xe2F11)2,0.38080000000000025
mp-554576,Rb2In3F11,3.9095
mp-554584,Rb3NaPbO4,1.6142999999999998
mp-554593,TbTaO4,4.1244
mp-554599,SnS2(O3F)2,4.2665
mp-554602,Rb2PdN2(ClO2)2,1.6980000000000002
mp-554605,Rb2SbCl3F2,3.0561
mp-554608,ZnS,2.0236
mp-554610,PrZr2F11,5.7572
mp-554623,Sm2Ta2Cl2O7,3.1249
mp-554625,SbS2NCl8,1.8083
mp-554630,ZnS,2.0318
mp-554631,Sb2(PO4)3,0.05740000000000034
mp-554651,K3Pu(H3O4)2,0.7253000000000001
mp-554663,Mg2SiO4,4.5874000000000015
mp-554665,SiO2,4.8029
mp-554674,ZnGa3N3O,0.09980000000000012
mp-554675,SrTa2Bi2O9,2.0000000000000004
mp-555279,BSBr,3.6239
mp-555280,ZnS,2.0347
mp-555288,SbS(BrF2)3,2.532
mp-555292,PNF2,5.1472000000000016
mp-555299,SrC4S4N2(O2F3)4,6.2402000000000015
mp-555303,LiEr(PO3)4,5.7413
mp-555305,NaNb(OF)2,3.1327
mp-555311,ZnS,2.0318000000000005
mp-555314,Sr7Zr(Si2O7)3,4.4268
mp-555319,Rb3Ti3(PO4)5,2.5341
mp-555336,Sr(PO3)2,5.5946
mp-557587,Nd4Ti9O24,2.8453000000000004
mp-557599,Rb2Bi(ClO4)5,4.0938
mp-557604,AlPO4,5.667000000000001
mp-557606,SbAs3(Se2F3)2,1.8713
mp-557618,Rb4CuSi2O7,0.7242
mp-557635,Sb2TeSeF10,1.5148
mp-557650,Sr3P6(N4O3)2,4.4971
mp-557656,RbNaSi2O5,4.4435
mp-557658,RbZnB(PO4)2,5.0408
mp-557661,Sb4PdC4(O2F11)2,3.2589
mp-557667,Ge3Pb5O11,2.4115
mp-557673,RbBe2P3O10,5.6227
mp-557680,NbAgO3,0.8148999999999997
mp-557683,Zn3(BO3)2,2.7833
mp-557687,TlHCO2,3.4859
mp-557691,La2O3,3.4110000000000005
mp-557704,TlNO3,2.8691
mp-557705,OsO2F3,0.5722
mp-557713,Ba2LaTaO6,3.6312
mp-557730,Dy(PO3)3,5.5908
mp-557738,Li3BiO4,1.0578999999999996
mp-557744,NaUBO5,1.9151
mp-557746,Zn2SeCl2O3,4.0926
mp-557748,SbIrC2(OF3)2,2.4943
mp-557752,CsHSO4,5.5519
mp-557757,AlPO4,5.632000000000001
mp-557763,Nd3NbO7,2.8046
mp-557764,Sr2Ni(PO4)2,3.9939
mp-557771,SiO2,2.3054
mp-557775,PSN(Cl2O)2,4.0739
mp-557778,RbNbSiO5,3.2067
mp-557780,CsSi2HO5,4.8193
mp-557787,TlSbO3,2.4363
mp-557791,Te4As2S(OF6)2,1.2113
mp-557803,MgSiO3,4.6751000000000005
mp-557809,SbSCl9,1.7553999999999998
mp-557814,SiO2,1.0636
mp-557823,SbXeO2F7,2.0896
mp-557825,H4CN2O,4.7048
mp-557833,Ti(Ag4S3)2,0.6463000000000001
mp-557835,TlF,2.9859
mp-557837,SiO2,5.6370999999999984
mp-557839,Sr2Fe2Se2OF2,1.9044
mp-557842,AlPO4,5.4534
mp-557853,TiH8C4NO10,0.022900000000000142
mp-557861,Li2CaTa2O7,2.1401
mp-557865,NO2,2.781
mp-557870,LaF3,4.9708
mp-557873,SiO2,5.4998
mp-557875,Rb3In(PO4)2,3.5923
mp-557880,KPO3,5.046399999999998
mp-557881,SiO2,5.5233
mp-559616,PH3CS3,2.1394
mp-559638,K3NpO2F5,0.12670000000000006
mp-559643,Rb2Mn(PS3)2,1.1690999999999998
mp-559655,PNF2,5.7734000000000005
mp-559660,V2Cu2O7,0.0049000000000000155
mp-559674,PH16C6S2NO4,4.4731000000000005
mp-559676,SnS,0.3127000000000004
mp-559679,P2H17C4NO8,4.9941
mp-559689,LiAlSiO4,5.0525
mp-561591,ZnWO4,3.5841
mp-561599,Ba3Nb2CoO9,1.5992000000000002
mp-561613,SrV3O7,2.3882
mp-561619,CsLuS2,2.1704
mp-561637,VO2,0.5916000000000001
mp-561664,TeF4,4.0186
mp-561700,LaP5O14,5.0310000000000015
mp-568534,P4C2Se3N2,2.2423
mp-568543,Na2SnSe3,1.324
mp-568570,CsSnI3,0.6174999999999997
mp-568590,SbCNCl5,1.9435
mp-568592,ZrNCl,1.7433999999999998
mp-568595,Re4Si7,0.04190000000000005
mp-568602,YCrO4,0.6873
mp-569764,RbCu2I3,2.0713
mp-569770,Si(H3C)2,3.5723000000000003
mp-569782,Sr2LiCBr3N2,3.9725
mp-569810,Sr2BIN2,2.5325999999999995
mp-569811,Yb11GaSb9,0.6382000000000003
mp-574086,SiBr4,4.1056
mp-574112,Ti(AlCl4)2,0.3218000000000001
mp-574169,TiGeTe6,0.4183000000000003
mp-574189,PbI2,2.4069000000000003
mp-574279,TlIn5Se7,0.3414000000000001
mp-574367,CuAsSe,0.0041999999999999815
mp-574424,SeN,1.9513
mp-574580,Tl4Pd3Cl10,1.1367
mp-574663,CdI2,2.4303000000000003
mp-578688,Te4Mo(OF4)5,2.9757
mp-578718,Nd6Mo10O39,3.1549
mp-578727,Rb2Cr5F17,2.5291
mp-578752,Sr11InSb9,0.8611
mp-578773,VPPbO6,2.3217000000000003
mp-578784,Ba(FeO2)2,1.9016
mp-578793,V2P2O9,1.7822
mp-578800,V3SiP5O19,2.0627
mp-578817,V2Cd4(TeO5)3,1.7825999999999995
mp-578882,SbPb2S2I3,1.7237999999999998
mp-578903,Nd5Ti4FeO17,1.7847
mp-579014,SrMn5(SO4)6,4.3057
mp-579139,Pr5Ti4FeO17,1.7721000000000005
mp-579190,Rb2MgP2WO10,3.327
mp-579214,Rb3Mo4(P2O11)2,1.1189
mp-579224,P4S9,2.7121000000000004
mp-579234,VP2NCl10O,1.7981
mp-579278,NaV3(FeO4)3,1.1299
mp-579304,Rb3Mo12PO40,2.2622
mp-579331,K2FeF5,3.6845
mp-10948,SiO2,5.2394
mp-31873,LiFe(PO3)4,1.8014
mp-31905,Ta2Mn4O9,2.4553000000000003
mp-31907,Mn(ReO4)2,3.0605
mp-31909,Ta2Mn3O8,2.3188000000000004
mp-31924,LiMnP2O7,1.225
mp-31929,MnHO2,0.7488999999999999
mp-31931,LiMn4(PO4)3,2.7244
mp-540742,NdTl(PO3)4,5.2239
mp-540743,Th2Zn17,0.09830000000000004
mp-540761,K2MnO4,0.4381
mp-540776,RbCr2FeO8,2.0605
mp-540783,OsO4,3.3465
mp-540784,Rb2Ti6O13,2.6209
mp-540785,PCF3,0.9724
mp-540789,PbI2,2.3957
mp-540793,VCl2O,1.2211
mp-540794,Ba3SrNb2O9,3.2346
mp-540795,Ba3SrTa2O9,3.8005
mp-540798,S3(NO7)2,1.44
mp-540812,Sr2CuF6,0.0232
mp-540818,Tl2Ge2Se5,1.4126
mp-540821,NiTe2O5,2.506
mp-540829,RuF5,0.6511000000000002
mp-554676,H3CS,3.7158
mp-554678,CaGe2O5,2.4608
mp-554681,ZnS,2.0175
mp-554682,SiO2,5.7065
mp-5547,Mg2B2O5,5.0851
mp-554701,SbP(OF3)2,4.3964
mp-554704,TiPHO5,2.8491
mp-554713,ZnS,2.0368
mp-554716,NaSbCO2F3,3.1012
mp-554718,Bi(BO2)3,3.8529
mp-554725,BaCo2(AsO4)2,0.5766
mp-554732,RbSbS(O2F)2,4.6867
mp-554740,CdGe(BiO3)2,1.9183
mp-554749,P3IrO9,2.2494000000000005
mp-554752,RbLi7(SiO4)2,4.718
mp-554755,SiO2,5.6152
mp-554756,PH6CNO3,5.2433000000000005
mp-554758,SiP2O7,5.7395
mp-554759,SrBNO,3.3960000000000004
mp-554763,NpAgSeO5,0.3155000000000001
mp-554764,Sb3Au3F22,0.07950000000000013
mp-554774,RbLu(SO4)2,5.8838
mp-554776,PNF2,5.5601
mp-554777,NaCuPO4,0.1743999999999999
mp-554778,NaY(SiO3)2,4.8028
mp-554788,AsSXeNF10,2.9772000000000003
mp-554799,VF4,2.2417
mp-554805,Sr3Se3(ClO4)2,3.4263
mp-554808,SnH22(Cl3O5)2,3.1125
mp-554815,LaSc3(BO3)4,4.2305
mp-554820,ZnS,2.0206
mp-554824,La3RuO7,0.5690999999999997
mp-554826,Pr3Si2ClO8,5.1502
mp-554827,NaMnCrF6,3.279
mp-554829,ZnS,2.0252
mp-554831,Yb4Cl6O,5.176
mp-555349,La2CO5,3.948700000000001
mp-555355,SiO2,1.2528
mp-555359,KMnF3,2.7802
mp-555369,SrCuH6O5,0.6365000000000001
mp-555378,Rb2FeF5,3.693
mp-555381,ZnS,2.0205
mp-555390,TcO3F,2.4445
mp-555391,NaVF3,0.6925000000000003
mp-555394,SiO2,4.0687
mp-555407,Nd6Si4S17,2.5163
mp-555408,SbS7IF6,1.9994
mp-555410,ZnS,2.0646000000000004
mp-555416,Na2V3O7,2.5094000000000003
mp-555418,Rb3NbH4(C2O5)3,3.1076
mp-555419,Te6As4C3(NF8)3,2.1515
mp-557894,SiO2,5.718299999999998
mp-557900,SbCSCl2F9,3.8
mp-557904,SbSe2S(NF3)2,1.5549
mp-557909,Zr(PO3)4,4.1549
mp-557911,Al3Pb5F19,4.815
mp-557914,DyTaO4,4.1277
mp-557915,AlPO4,5.4597
mp-557917,SbI(OF4)2,2.2627
mp-557920,Zn3(PO4)2,3.4139
mp-557933,SiO2,5.5245
mp-557946,Cu3Se2(ClO3)2,0.10180000000000013
mp-557952,RbInP2O7,3.8119
mp-557961,SbCNCl4O,2.1439
mp-557962,SrLiBS3,2.3921999999999994
mp-557985,KPO3,4.9935
mp-558003,UH12C4N4O11,2.3849
mp-558007,Sm(IO3)3,3.6031
mp-558023,Rb2Sb4O11,1.8205
mp-558025,SiO2,5.671
mp-558026,SbSe(IF2)3,1.4032
mp-558039,Sr2HoSbO6,3.6365
mp-558050,Rb2NaMnF6,1.5342
mp-558054,SrLi2Ta2O7,2.2704000000000004
mp-558056,AlPO4,5.4806
mp-558071,RbS,1.6972000000000005
mp-558073,Sb2SeI2F11,1.4002
mp-558078,Rb2NaFeF6,4.0722000000000005
mp-558079,Ca3Mg(SiO4)2,3.8228
mp-558088,AlPO4,5.6341
mp-558096,Zn2SiO4,2.3636
mp-558099,Nb2Tl5S4Br9,1.6588000000000005
mp-558104,NaMn3F10,1.4189
mp-558106,SnH58C16S4(N11O9)2,4.6716
mp-558108,U3Tl2(IO5)4,1.6891000000000005
mp-558111,Rb2MnF6,3.3045
mp-558115,SiO2,5.6222
mp-558125,BaTiO3,2.3004
mp-558129,KNaSi2O5,4.4523
mp-558133,Rb2MnF6,3.2313
mp-558135,Ti4S8Cl6O,1.6012
mp-558138,Te2AsCNF6,1.5716
mp-558143,Pr4S3NCl3,3.0308
mp-558155,KFeF4,3.109
mp-558160,NaYCO3F2,5.2379
mp-558162,RbP(OF)2,5.1966
mp-558163,Pb(SeO3)2,1.2782999999999998
mp-558165,SbC(Cl2O)2,2.1067
mp-558169,NaCaAlF6,6.9056000000000015
mp-558170,Rb3PO4,3.6648
mp-558181,NaSiBO4,5.5274
mp-558186,RbLu3F10,6.7502
mp-558192,NaPO3,5.1461999999999986
mp-559692,Ta2Cd(P2O7)3,3.5607
mp-559702,Pr2Ta2Cl2O7,3.0505
mp-559704,PH9C3S2NClO4,4.0576
mp-559711,Rb2Na2SiO4,3.083
mp-559724,Ta4S9Br8,1.2976
mp-559727,Tl2CuAsO4,1.7260000000000004
mp-559734,UOF4,2.5352
mp-559738,SbSNCl5,1.7869
mp-559740,SiO2,5.7101
mp-559748,NdGaGe2O7,2.8601
mp-559752,CsZnPO4,3.9582
mp-559756,PrScO3,4.2587
mp-561799,Yb(GaS2)2,2.8668000000000005
mp-561805,K2Mo4O13,3.1281
mp-561822,Ag2PS3,1.7452
mp-561886,CsNd(PO3)4,5.493200000000001
mp-561909,V2CdO6,2.6495