task_id,composition,formation_energy_per_atom
mp-1212974,ErSI,-1.6458804705208332
mp-2191,ErSb,-1.0894832250000004
mp-1018159,ErSb2,-0.19164782833333285
mp-1184274,ErSb3,-0.3636423375000009
mp-1213011,ErSbIr,-0.8803288274999991
mp-1200438,ErSbMo2O9,-2.4441428049038465
mp-1237008,ErSbO4,-2.8917727491666665
mp-11836,ErSbPd,-1.1161963766666665
mp-16329,ErSbPt,-1.222842676666667
mp-1213025,ErSbRh,-0.9888782183333332
mp-1225475,ErSc(BO3)2,-3.5080925545833344
mp-1212985,ErScO3,-3.987752992250001
mp-1184223,ErScRu2,-0.4514989937500005
mp-1190244,ErScS3,-2.3731054839375005
mp-1184239,ErScZn2,-0.3431220212500001
mp-2491,ErSe,-1.6874844017968753
mp-1213595,ErSe2NO11,-0.9702536852211656
mp-1206174,ErSeBr,0.8768527788020831
mp-23086,ErSeClO3,-2.503161382600625
mp-27123,ErSeF,-3.0155706396501385
mp-28458,ErSeI,-1.6892281495312502
mp-556999,ErSeO3F,-2.8368496089222925
mp-378,ErSi,-0.8232735174999997
mp-1077267,ErSi2,-0.5004768716666662
mp-12382,ErSi2Ni,-0.8277910675000006
mp-8535,ErSi2Rh3,-1.06319518
mp-12386,ErSi3Ni,-0.6829860390000008
mp-15307,ErSi3Rh5,-0.9730216059259268
mp-1084844,ErSiAg,-0.5900384449999999
mp-20733,ErSiIr,-1.0848165266666676
mp-1213005,ErSiNi,-0.8335127249999997
mp-1225459,ErSiNi3,-0.6124422469999999
mp-1206269,ErSiOs2C,-0.509024313750001
mp-3352,ErSiPd2,-0.9919150406250008
mp-1102879,ErSiPt,-1.2074886583333335
mp-22114,ErSiRh,-1.074443046666668
mp-1213010,ErSiRh2,-1.0266600412499989
mp-22247,ErSiRu,-0.8524887433333342
mp-1205505,ErSiRu2C,-0.6132880407499997
mp-30613,ErSn2,-0.555017718333333
mp-11372,ErSn3,-0.3734561550000004
mp-1071492,ErSnGe,-0.5619921183333337
mp-1078876,ErSnIr,-0.8544155711111109
mp-1079874,ErSnPd,-0.9294307488888888
mp-5850,ErSnPd2,-0.8896292849999998
mp-1079826,ErSnPt,-1.087638342222222
mp-30611,ErSnPt2,-1.017473355
mp-31298,ErSnRh,-0.9064551399999992
mp-862931,ErSnRh2,-0.8221315625000011
mp-866285,ErSnRu2,-0.39089940250000055
mp-984707,ErTa3,0.3642562512499996
mp-756598,ErTa3O9,-3.5399081527884615
mp-1213131,ErTa5Ag2O15,-3.010503999293477
mp-773103,ErTa7O19,-3.4370098527314803
mp-1184204,ErTaO3,-2.805947267750001
mp-3444,ErTaO4,-3.7624078766666655
mp-866299,ErTaOs2,-0.2852761812500013
mp-863679,ErTaRu2,-0.4306079012499993
mp-1095604,ErTc2,-0.2219564775000009
mp-1018692,ErTe2,-1.1016701900000008
mp-1078991,ErTe3,-0.8862136387499997
mp-1212634,ErTeAs,-1.1459124966666667
mp-1225448,ErTh,0.019167307500000064
mp-1225387,ErThCN,-1.0452864640324997
mp-1226123,ErThFe14B,-0.10906878906862637
mp-1225488,ErThRe4,-0.17251358166666594
mp-1184246,ErThRu2,-0.4577177087500006
mp-863681,ErThTc2,-0.0661278562500005
mp-1212930,ErTiClO3,-3.552590019779444
mp-1225513,ErTiFe11C,-0.10530018074404726
mp-4743,ErTiGe,-0.6961457838888876
mp-756296,ErTiO3,-3.658643125583334
mp-20918,ErTiSi,-0.6635938838888897
mp-1054,ErTl,-0.30727788999999994
mp-1213125,ErTl(MoO4)2,-2.4494507808333332
mp-1105213,ErTl(PSe3)2,-0.6170312865848211
mp-1213014,ErTl(WO4)2,-2.5116558454166658
mp-1195632,ErTl2P2Se7,-0.5868607614118305
mp-2431,ErTl3,-0.17709200000000047
mp-754823,ErTlO2,-2.756376815625
mp-1184219,ErTlO3,-2.01099148875
mp-1184208,ErTlRh2,-0.5708768425000006
mp-4123,ErTlS2,-1.8209075870312503
mp-570117,ErTlSe2,-1.3764451442968753
mp-1007907,ErTlTe2,-1.0371779874999998
mp-1018688,ErTlZn,-0.2762644383333335
mp-1184302,ErTm3,-0.003440504999999483
mp-1184253,ErTmAg2,-0.33302977874999984
mp-1184284,ErTmCd2,-0.3016478512500003
mp-1184262,ErTmCu2,-0.27621706625000103
mp-1184249,ErTmHg2,-0.4679193062500002
mp-1184271,ErTmIn2,-0.4272544929166671
mp-1184240,ErTmMg2,-0.05567533875000042
mp-1184248,ErTmPd2,-0.940672063750001
mp-1184242,ErTmRu2,-0.3997880987500002
mp-1184245,ErTmTl2,-0.2985910687500004
mp-1184251,ErTmZn2,-0.3335631262500001
mp-1184350,ErU,0.4287462075000006
mp-552802,ErU2S3O2,-2.7531901649609365
mp-1225410,ErUN2,-1.7111406324400005
mp-1225444,ErUTe4,-0.9189651441666674
mp-1225699,ErUTe6,-0.7057090768750003
mp-1225484,ErV2Fe10N,-0.1967769948128588
mp-10983,ErVB4,-0.7305382477777774
mp-1212989,ErVO2,-2.565773064375
mp-19205,ErVO3,-3.3165522797500016
mp-18960,ErVO4,-3.22665981
mp-1192576,ErWBrO4,-2.5976369760714286
mp-1188587,ErWC2,-0.3088075324999995
mp-1660,ErZn,-0.34584321
mp-1025096,ErZn2,-0.3870736700000001
mp-1188367,ErZn3,-0.34169882
mp-569927,ErZn5,-0.2640613949999994
mp-983603,ErZnAsO,-2.0091190415625
mp-1225396,ErZnCuP2,-0.7617251608571423
mp-1018694,ErZnGa,-0.5736435483333331
mp-1212934,ErZnGe,-0.6420624749999995
mp-1018689,ErZnIn,-0.4091979344444449
mp-1078524,ErZnNi,-0.4669588233333326
mp-1184207,ErZnO3,-2.300317914749999
mp-1079852,ErZnPd,-0.7574446500000005
mp-1102795,ErZnPt,-0.9889195700000002
mp-1212903,ErZnRh,-0.7465446566666658
mp-977538,ErZnRh2,-0.6929446300000004
mp-1212948,ErZnSn,-0.5559664541666667
mp-1225381,ErZr,0.07535733749999984
mp-690951,ErZr11Si11PO48,-3.563783877668652
mp-1213575,ErZr6(PO4)9,-3.2569515734478016
mp-1184237,ErZrRu2,-0.5401913212500009
mp-5848,ErZrSb,-0.7786876183333327
mp-1078223,Eu(Ag2Sb)2,-0.3003740750000006
mp-1206337,Eu(AgGe)2,-0.3659426929999995
mp-567527,Eu(Al10V)2,-0.19349534608695604
mp-1104923,Eu(Al2Cu)4,-0.2910986634615381
mp-569200,Eu(Al2Fe)4,-0.3525493950000002
mp-504740,Eu(Al4Fe)2,-0.3681327084090917
mp-13485,Eu(AlAu)2,-0.6700688319999998
mp-30022,Eu(AlCl4)2,-2.2175100110072723
mp-20867,Eu(AlGa)2,-0.4078390349999992
mp-20151,Eu(AlGe)2,-0.4226651430000004
mp-1103889,Eu(AlS2)2,-1.8081125273214296
mp-1103552,Eu(AlSe2)2,-1.2338992084821432
mp-20595,Eu(AlSi)2,-0.3610190289999998
mp-1069444,Eu(AsPd)2,-0.8146150250000005
mp-1078722,Eu(AsPt)2,-0.8002509590000002
mp-638841,Eu(AsRh)2,-0.8121618389999995
mp-4050,Eu(AsRu)2,-0.6969248969999995
mp-1079886,Eu(BC)2,-0.2183424421666672
mp-20976,Eu(BIr)2,-0.6673801026666653
mp-20578,Eu(BIr)4,-0.4993769279629624
mp-540879,Eu(BO2)2,-3.0827535365476204
mp-22248,Eu(BO2)3,-2.97298418725
mp-1199986,Eu(BRu)4,0.2284393198148141
mp-510243,Eu(BS2)2,-1.2982288220833331
mp-1080767,Eu(BiPd)2,-0.5767606949999994
mp-1192923,Eu(BiS2)2,-1.2309972269642862
mp-637267,Eu(C2N3)3,-0.08349323930749898
mp-1070314,Eu(CdAs)2,-0.6324981190000003
mp-22609,Eu(CdP)2,-0.5992201778571428
mp-19774,Eu(CdSb)2,-0.4958128590000008
mp-627640,Eu(ClO4)3,-0.9823528177987502
mp-570456,Eu(CoAs)2,-0.653547386999999
mp-1206612,Eu(CoGe)2,-0.4939311250000003
mp-20038,Eu(CoP)2,-0.8943400238571414
mp-672294,Eu(CoSi)2,-0.6573818209999984
mp-1068248,Eu(CrAs)2,-0.4717284009999986
mp-10442,Eu(Cu2As)2,-0.3751849321428571
mp-574507,Eu(Cu2Sn)2,1.2960772178571431
mp-3557,Eu(CuGe)2,-0.4323612209999993
mp-9418,Eu(CuO2)2,-1.81417929
mp-505769,Eu(CuSb)2,-0.4499050289999985
mp-3412,Eu(CuSi)2,-0.4791618589999992
mp-1069357,Eu(CuSn)2,-0.3695866229999993
mp-1193960,Eu(DyS2)2,-2.495860615535715
mp-645690,Eu(DySe2)2,-1.9306171841964297
mp-541052,Eu(ErS2)2,-2.498041896964286
mp-1193984,Eu(ErSe2)2,-1.927164110982144
mp-20890,Eu(FeAs)2,-0.5912082269999999
mp-20095,Eu(FeP)2,-0.8922959118571427
mp-20856,Eu(FeP3)4,-0.5612825341596639
mp-582357,Eu(FeSi)2,-0.5033308549999986
mp-1225812,Eu(GaGe2)2,-0.2125810528571433
mp-1181942,Eu(GaS2)2,-1.5215931821428583
mp-945228,Eu(GaSb)2,-0.20486518299999973
mp-1201775,Eu(GaSe2)2,-1.029675193125
mp-1103807,Eu(GaTe2)2,-0.7145380714285713
mp-675143,Eu(GdS2)2,-2.4685520758928567
mp-1184807,Eu(Ge3Pt)4,-0.010928754411764885
mp-1068398,Eu(GeAu)2,-0.4675971750000002
mp-570058,Eu(GeIr)2,-0.6900461549999989
mp-1080180,Eu(GePt)2,-0.8304528930000004
mp-626981,Eu(GeRh)2,-0.8266816590000005
mp-21417,Eu(GeRu)2,-0.5473884929999997
mp-625467,Eu(HO)3,-1.9841088178014288
mp-1193160,Eu(HoS2)2,-2.4993968044642862
mp-556079,Eu(IO3)3,-1.3303107062500006
mp-1103870,Eu(In2Ag)4,0.3854735675641025
mp-1192981,Eu(In2Au)2,-0.4129849694047622
mp-1194923,Eu(In4Ir)2,0.2990345587121219
mp-21952,Eu(In4Rh)2,-0.3441744619696966
mp-608777,Eu(InAs)2,-0.6042220393333324
mp-606777,Eu(InAu)3,-0.4573155021428573
mp-1104657,Eu(InSe2)2,-0.949126928720238
mp-34255,Eu(LuS2)2,-2.3937100623214294
mp-645692,Eu(LuSe2)2,-1.9116518463392853
mp-1183991,Eu(Mg4Al3)4,-0.056605551551723865
mp-1206394,Eu(MgAs)2,-0.9500715249999993
mp-1006146,Eu(MgBi)2,-0.5459787209999994
mp-1212857,Eu(MgGa)2,-0.3507954670000004
mp-613838,Eu(MgGe)3,-0.3940702992857145
mp-643738,Eu(MgH3)2,-0.4244977851911105
mp-1206478,Eu(MgP)2,-0.9685923578571426
mp-582736,Eu(MgSb)2,-0.7331449109999995
mp-20128,Eu(MnAs)2,-0.5070539269999997
mp-672298,Eu(MnGe)2,-0.21731614699999965
mp-21474,Eu(MnP)2,-0.6435800658571438
mp-582227,Eu(MnSb)2,-0.21054308299999888
mp-3627,Eu(Mo3S4)2,-1.2435123871666662
mp-1104114,Eu(Mo3Se4)2,-0.7064431502499995
mp-1019733,Eu(NO3)3,-1.4202475714146148
mp-580731,Eu(Ni2B)6,-0.36045511763157895
mp-695771,Eu(Ni3S4)2,-0.8945592478333338
mp-21672,Eu(Ni5P3)2,-0.6133566869327726
mp-6992,Eu(NiAs)2,-0.7204084890000004
mp-3333,Eu(NiGe)2,-0.5740199070000003
mp-3758,Eu(NiP)2,-0.8848114198571437
mp-570308,Eu(NiSb)2,-0.5445612670000003
mp-1188524,Eu(P3Ru)4,-0.626370409453781
mp-21386,Eu(PIr)2,-0.9376359651904768
mp-1213012,Eu(PO3)3,-2.8351779748214287
mp-20802,Eu(POs)2,-0.6808906498571432
mp-581754,Eu(PPd)2,-0.8908008418571427
mp-8582,Eu(PRh)2,-0.9795340318571434
mp-22788,Eu(PRu)2,-0.9598211038571436
mp-754760,Eu(ReO4)2,-2.5327746309090884
mp-640956,Eu(Sb3Os)4,0.2261676544117652
mp-20855,Eu(Sb3Ru)4,-0.3171852738235309
mp-504900,Eu(SbPd)2,-0.7843317089999999
mp-1194437,Eu(SbS2)2,-1.13208032125
mp-607044,Eu(ScSe2)2,-1.7031197084821434
mp-1199825,Eu(SeO4)2,-1.5163069036079542
mp-22653,Eu(SiAg)2,-0.3640108510000005
mp-21229,Eu(SiAu)2,-0.5557352630000004
mp-21849,Eu(SiIr)2,-0.9714031549999989
mp-4768,Eu(SiNi)2,-0.6876382390000003
mp-20115,Eu(SiPd)2,-0.8332692230000006
mp-1076931,Eu(SiPt)2,-0.9226474750000008
mp-21383,Eu(SiRh)2,-1.0030454230000003
mp-581736,Eu(SiRu)2,-0.7548702230000004
mp-1079406,Eu(SnPd)2,-0.720897063999999
mp-542964,Eu(TmSe2)2,-1.9201156299107145
mp-38971,Eu(YS2)2,-2.4521430830357147
mp-1017559,Eu(ZnAs)2,-0.6734633969999997
mp-19808,Eu(ZnGe)2,-0.39431267999999947
mp-1069383,Eu(ZnP)2,-0.7222347438571426
mp-1069042,Eu(ZnSb)2,-0.4787874149999993
mp-22133,Eu(ZnSi)2,-0.3709371749999996
mp-13135,Eu(ZnSn)2,-0.3454810739999992
mp-1204179,Eu10Mn6Sb13,-0.5841625025862066
mp-1194247,Eu11(ZnAs2)6,-0.9528987753448268
mp-1193786,Eu11(ZnSb2)6,-0.7328677629310348
mp-1227931,Eu16Sb11,-1.0111538998148148
mp-1225828,Eu2(AlAg)5,-0.2889096766666673
mp-1190659,Eu2(AlAu2)3,-0.6599021549999994
mp-1213181,Eu2(AsPt)3,1.067542870625
mp-1206253,Eu2(BiPd)3,1.2149192143750005
mp-1225966,Eu2(CuNi)5,-0.14161953916666667
mp-542930,Eu2(Ga3Ir)3,-0.5880272649999999
mp-645591,Eu2(Ga3Rh)3,-0.6282627307142852
mp-562708,Eu2(MoO4)3,-2.443813195
mp-1213420,Eu2(SbPd)3,1.1246038631249995
mp-540684,Eu2(WO4)3,-1.895953215294117
mp-1225527,Eu2(ZnNi)5,-0.2802928362499995
mp-1099927,Eu2Ag2O5,-1.7988449534722215
mp-1183891,Eu2AgAu,-0.5350128475
mp-1183883,Eu2AgBi,-0.6182803112499995
mp-1183896,Eu2AgGe,-0.4796631887499992
mp-1183893,Eu2AgHg,-0.4054099375
mp-1184199,Eu2AgPb,-0.4448270599999997
mp-1183902,Eu2AgPd,-0.4623338650000006
mp-1183904,Eu2AgPt,-0.5972919350000003
mp-1183909,Eu2AgRh,-0.3145425950000007
mp-1183942,Eu2AgSb,-0.7101397187499998
mp-1183890,Eu2AgSn,-0.51959695625
mp-861959,Eu2Al2O5,-3.2820624684722213
mp-1225429,Eu2Al3Ag,-0.3438164600000005
mp-1225452,Eu2Al3Ga,-0.4279368433333334
mp-1212582,Eu2Al3O8,-3.2019599288461547
mp-685394,Eu2Al42O65,-3.3039391745986233
mp-771815,Eu2Al4O9,-3.2901394477499992
mp-1225642,Eu2Al6Si3Au2,-0.4494996507692308
mp-1025206,Eu2AlNO3,-2.7002814508757127
mp-1225411,Eu2AlP3Pt7,-0.9334978351098896
mp-1183928,Eu2As2O5,-2.2210315618055554
mp-1213423,Eu2As3,-0.9413664559999999
mp-1225431,Eu2As3Pt,-0.8842269491666658
mp-1226033,Eu2As7Pd12,-0.599412775952381
mp-1183880,Eu2AsAu,-0.9929315012500002
mp-1212596,Eu2B2O5,-3.155956349398148
mp-1213631,Eu2B4O9,-3.0111418968611114
mp-570529,Eu2B4Rh5,-0.62020239151515
mp-558834,Eu2B5BrO9,-2.9737432392401955
mp-553918,Eu2B5ClO9,-3.039295200167253
mp-582389,Eu2B5Os3,-0.3919095418333328
mp-1077381,Eu2BBrN2,-1.5169688269044446
mp-1212955,Eu2Be2SiO7,-3.226083509479168
mp-1183887,Eu2BiAu,-0.8369530962500003
mp-1193935,Eu2BiS4,-1.7611644191071425
mp-1206213,Eu2Br2F,-1.5286357052379989
mp-605786,Eu2BrO2,-2.966425672500003
mp-582618,Eu2C(NCl)2,-1.7881648428614283
mp-22234,Eu2C(NO)2,-1.9091568708585709
mp-1104962,Eu2Cd2As3,-0.7462705835714283
mp-1183877,Eu2CdGa,-0.3888892112499995
mp-1183885,Eu2CdGe,-0.4890922574999994
mp-1183915,Eu2CdHg,-0.4318853912499998
mp-1183962,Eu2CdPb,-0.4938790987499999
mp-1183888,Eu2CdSn,-0.5580057299999996
mp-1207289,Eu2Cl2F,-1.9160425905420009
mp-1191681,Eu2Co12P7,-0.6887710954761904
mp-1076123,Eu2Co2O5,-2.362206575138888
mp-1225466,Eu2Co4Si3Ge,-0.5993168144999999
mp-1225561,Eu2Co5Ge3,-0.3056614574999997
mp-770606,Eu2CoO4,-2.614116252142857
mp-1213003,Eu2CoPtO6,-2.19669246175
mp-1213340,Eu2CoRuO6,-2.36129365275
mp-1199416,Eu2CoSi3O10,-3.0285066253125
mp-1190438,Eu2CoTe2(SO7)2,-2.2365800193154763
mp-1076286,Eu2Cr2O5,-2.7238812618055563
mp-1213059,Eu2Cu(GeO3)4,-2.2953258907894742
mp-1213273,Eu2Cu(GeO4)2,-2.421843522307692
mp-1099765,Eu2Cu2O5,-2.118111550694443
mp-1225406,Eu2Cu4Si3Ge,-0.44732367650000027
mp-1103514,Eu2Cu6P5,-0.5119145831318679
mp-1194919,Eu2CuH4(SO6)2,-2.1274144710764284
mp-1183898,Eu2CuIr,-0.2139971049999989
mp-1183906,Eu2CuRh,-0.2325733374999999
mp-1192020,Eu2CuS3,-1.876843979114584
mp-1212968,Eu2CuSe2O,-0.6023488714062495
mp-1225340,Eu2CuTe4,-1.0070612871428577
mp-1205520,Eu2DyTaO6,-3.49029386775
mp-1206839,Eu2ErTaO6,-3.5190678982499977
mp-1077617,Eu2Fe2O5,-2.5381198412500003
mp-1079126,Eu2FeH6,-0.6009599990799993
mp-1225377,Eu2FeP3Pt7,-0.7841583828021984
mp-1225440,Eu2FeSbO7,-2.5862241612499988
mp-1184040,Eu2Ga2O5,-2.649424439583333
mp-609413,Eu2Ga3Ir,-0.6017160524999999
mp-1225364,Eu2Ga7Ag,-0.4186533539999999
mp-1225457,Eu2GaAg3,-0.3526870383333325
mp-1183895,Eu2GaHg,-0.48592757499999895
mp-1206027,Eu2GdTaO6,-3.43369642375
mp-1095642,Eu2Ge,-0.5712090933333324
mp-1019739,Eu2Ge(BO4)2,-2.8892390652564104
mp-22828,Eu2Ge2O7,-2.6543227673863643
mp-628758,Eu2Ge2Se5,-1.0315474797743052
mp-1102390,Eu2Ge3Au,-0.6492705991666673
mp-648448,Eu2GeO5,-2.83392847421875
mp-1103850,Eu2GeS4,-1.7441913337500006
mp-629088,Eu2GeSe4,-1.2443327677678568
mp-1203361,Eu2H16S3O20,-1.8462016674416453
mp-1018691,Eu2H3Br,-1.0271534176433328
mp-1018693,Eu2H3Cl,-1.2001772548533332
mp-643930,Eu2H4Pd,-0.6203550449257135
mp-1205815,Eu2H6Ir,-0.6548786513022217
mp-634945,Eu2H6Ru,-0.6672827974133324
mp-1206586,Eu2HCl2,-0.8267700630280004
mp-1213558,Eu2Hf2(MoO4)7,-2.541866791794871
mp-1191195,Eu2Hf2O7,-3.687396410340906
mp-1183879,Eu2HgBi,-0.6903083187499996
mp-867299,Eu2HgGe,-0.5987137437499994
mp-1212953,Eu2HgO4,-2.4557755392857143
mp-1183882,Eu2HgSb,-0.7695032762499991
mp-1181527,Eu2HoTaO6,-3.599209993250001
mp-558258,Eu2I2O,-2.2488244472499987
mp-1095519,Eu2In,-0.3254069177777765
mp-1184056,Eu2InHg,-0.4904964083333328
mp-1095160,Eu2InPd2,-0.7063657896666669
mp-1095035,Eu2InPt2,-0.8838744956666659
mp-641683,Eu2Ir2O7,-2.2196398867045466
mp-1205856,Eu2LuTaO6,-3.5591893377500017
mp-1183936,Eu2Mg,-0.004505583333333618
mp-1181729,Eu2Mg3H10,-0.4280995590799999
mp-1183886,Eu2MgCd,-0.19196347875
mp-1225624,Eu2MgGa3,-0.4327288716666669
mp-644292,Eu2MgH6,-0.5041030390799995
mp-1184025,Eu2MgIn,-0.27955001583333416
mp-1188494,Eu2MgIrO6,-2.6399574727500004
mp-1213021,Eu2MgPtO6,-2.544090775750001
mp-1232050,Eu2MgS4,-1.8857299146428577
mp-1232395,Eu2MgSe4,-1.401907801875
mp-982662,Eu2MgSi2O7,-3.358890582812501
mp-1183894,Eu2MgSn,-0.43925049125000015
mp-1183884,Eu2MgTl,-0.2571194412500004
mp-1205507,Eu2MgWO6,-2.9398725487500004
mp-1226301,Eu2Mn(GeO3)4,-2.4574021663663164
mp-1099747,Eu2Mn2O5,-2.6640443403522216
mp-769834,Eu2Mn2O7,-2.4956939718790907
mp-1225901,Eu2Mn3Sb3O14,-2.3011907897899992
mp-1181563,Eu2Mn5Al12,-0.25807510052631544
mp-1225492,Eu2MnP3Pt7,-0.8517338389560442
mp-1225753,Eu2MnRhO6,-2.4286726008460002
mp-1225478,Eu2MnSbO7,-2.631197981337273
mp-1190662,Eu2MnSi2O7,-3.1671721741425003
mp-1225913,Eu2Mo(WO6)2,-2.473590042647059
mp-1191878,Eu2Mo2O7,-2.720125364431819
mp-1226168,Eu2Mo2WO12,-2.441707529705881
mp-1198444,Eu2Mo3H2Se2O17,-2.056445308295288
mp-704384,Eu2Mo5O18,-1.9193952803000005
mp-1213281,Eu2MoO6,-2.783441761388889
mp-1212961,Eu2N,-0.8311792657933333
mp-674312,Eu2Nb4O13,-2.9612741650657886
mp-1213102,Eu2Nb5O9,-2.839483054453124
mp-1225682,Eu2NbGaO7,-2.977620801704545
mp-1213550,Eu2Ni12P5,-0.6265273371428576
mp-1201182,Eu2Ni17,-0.06720363657894711
mp-1076223,Eu2Ni2O5,-2.110242695138889
mp-1225511,Eu2Ni3Sb4,-0.5718522000000006
mp-1213320,Eu2Ni7P4,-0.7578528729670331
mp-1225476,Eu2NiGe3,-0.5300729658333326
mp-1178384,Eu2NiO4,-2.4633605849999998
mp-1212982,Eu2NiPtO6,-2.10369368025
mp-1213246,Eu2NiRuO6,-2.2703965312500003
mp-1225298,Eu2P3Pt4,-1.0041161384920625
mp-1225319,Eu2PCl,-1.757373531350714
mp-569689,Eu2PI,-1.4215869205357132
mp-756670,Eu2Pb2O7,-2.171492468068183
mp-1184039,Eu2PdAu,-0.7088695025000007
mp-1191889,Eu2Pt2O7,-2.0959517967045467
mp-867502,Eu2PtAu,-0.8377092150000012
mp-572604,Eu2Re6S11,-1.2186039270888156
mp-637431,Eu2Ru2O7,-2.2935375135227294
mp-1106110,Eu2S3,-2.011032300937501
mp-21071,Eu2SO2,-2.9492258813124983
mp-542297,Eu2SO6,-2.8166943757291683
mp-1199270,Eu2Sb3,-0.8259050327500006
mp-1184372,Eu2SbAu,-0.93370361625
mp-1096978,Eu2Sc2O5,-3.5718136945833328
mp-1225538,Eu2ScNbO7,-3.3767812153409085
mp-754655,Eu2SeO2,-2.7027286942187514
mp-1225299,Eu2SeS,-2.244755040664062
mp-1102477,Eu2Si,-0.4303592858333332
mp-21599,Eu2Si2O7,-3.3291008226136363
mp-1191372,Eu2Si3Ag,-0.5191359266666673
mp-1225441,Eu2Si3Au,-0.5514848166666676
mp-1225271,Eu2Si3Ni,-0.5010622250000006
mp-1202253,Eu2Si3Ni8,-0.5312149851923078
mp-22765,Eu2Si3Pd,-0.7591958791666672
mp-1225244,Eu2Si4IrPd3,-0.8305010920000016
mp-1225277,Eu2Si4Pd3Au,-0.7474771250000011
mp-1105156,Eu2Si5Pt3,-0.8856881430000001
mp-555322,Eu2SiCl2O3,-3.16602251065875
mp-1191010,Eu2SiN3,-1.3629382291066652
mp-554546,Eu2SiO4,-3.367739819642858
mp-867966,Eu2SiO5,-3.3441928626562487
mp-22504,Eu2SiS4,-1.9144230001785716
mp-1213070,Eu2Sn,-0.6107287925000003
mp-505306,Eu2Sn2O7,-2.6838961226136364
mp-31293,Eu2Sn5Au2,-0.5197777172222229
mp-867477,Eu2SnHg,-0.6534883162499989
mp-632490,Eu2SnS4,-1.7683819701785717
mp-1191288,Eu2Ta2O7,-3.4878433953409105
mp-1205947,Eu2TaAlO6,-3.4592915027499997
mp-31247,Eu2Te4O11,-2.057997938161765
mp-1226871,Eu2Ti12(CuO4)9,-2.668065516864408
mp-1184430,Eu2Ti2O5,-3.3064734055092577
mp-505801,Eu2Ti2O7,-3.4220844224621216
mp-1225669,Eu2TiCuO6,-2.8320445434166652
mp-1025200,Eu2TiO4,-3.468343161666668
mp-1195915,Eu2TiO5,-3.3738628303645832
mp-1184281,Eu2TlCd,-0.3912638050000004
mp-1213054,Eu2TlCl5,-2.4141299426625
mp-1184263,Eu2TlHg,-0.4814302712499998
mp-1184473,Eu2TlIn,-0.4031109470833343
mp-1184286,Eu2TlSn,-0.5399529950000002
mp-1184322,Eu2TlZn,-0.3291020000000007
mp-1205480,Eu2TmTaO6,-3.5375064357499992
mp-1099750,Eu2V2O5,-2.8236964190277782
mp-1184406,Eu2W2O5,-2.0790641006944446
mp-1213585,Eu2WO6,-2.8213676088888886
mp-771309,Eu2Y2O5,-3.5081867670833327
mp-1206828,Eu2YTaO6,-3.47770645275
mp-1104456,Eu2Zn2As3,-0.8102916378571428
mp-1212837,Eu2Zn2CuP3,-0.7759229320535708
mp-1104145,Eu2Zn2P3,-0.8359868716326531
mp-1103795,Eu2Zn3Ge,-0.4171336624999995
mp-1184356,Eu2ZnAg,-0.2611427987499999
mp-1184288,Eu2ZnCd,-0.27831436750000016
mp-1184310,Eu2ZnGa,-0.3603031112499995
mp-1095470,Eu2ZnGe3,-0.5615723074999993
mp-1184247,Eu2ZnHg,-0.3848788262499996
mp-1184464,Eu2ZnIn,-0.3425998420833336
mp-1184277,Eu2ZnIr,-0.2785544312500008
mp-1078980,Eu2ZnP2,-0.9910558018571421
mp-1225253,Eu2ZnP3Pt7,-0.8571054985714273
mp-1212992,Eu2ZnPtO6,-2.25621916825
mp-1184339,Eu2ZnRh,-0.2990411262499997
mp-1225256,Eu2ZnSb2,-0.7395647189999991
mp-1184291,Eu2ZnSn,-0.5056431849999994
mp-685944,Eu2Zr2O7,-3.5349652757954564
mp-1206153,Eu2ZrO4,-3.433551083571428
mp-1189098,Eu3(AlAs2)2,-0.9563160794444436
mp-1205409,Eu3(AlP2)2,-1.0112637398412705
mp-612175,Eu3(AsPd)4,-0.9297686513636372
mp-559134,Eu3(AsS4)2,-1.4371728171153852
mp-672322,Eu3(B3Rh4)2,-0.6139259473529418
mp-505346,Eu3(BO3)2,-3.1956357687121213
mp-11638,Eu3(Cu2Sn)4,-0.3008087490000008
mp-1193402,Eu3(Ga2Ge3)2,-0.42609542000000017
mp-1105637,Eu3(GaAs2)2,-0.8608412244444439