task_id,composition,formation_energy_per_atom
mp-1225737,Dy2Fe15Si2CN,-0.2002223524347601
mp-1196404,Dy2Fe17,-0.016374725263158564
mp-1225413,Dy2Fe17C,-0.043641339437502334
mp-1225407,Dy2Fe17C2,-0.0662856465476206
mp-1190738,Dy2Fe17C3,-0.08479741301136362
mp-1225785,Dy2Fe17CN,-0.13723573100619188
mp-1213248,Dy2Fe17H3,-0.08669311935727303
mp-1190690,Dy2Fe17N3,-0.2844351489609109
mp-11705,Dy2Fe2Si2C,-0.6939427412500011
mp-1225304,Dy2Fe3Ni,-0.15451515499999974
mp-669393,Dy2Fe3Si5,-0.6970705367500003
mp-1225389,Dy2Fe4Si9,-0.3407606613333333
mp-1198179,Dy2Fe6Co8B,-0.15270492392156895
mp-1225366,Dy2FeCo3,-0.19257881833333332
mp-1225454,Dy2FeMoO7,-2.8244052762500003
mp-1225341,Dy2FeSbO7,-2.946334278977272
mp-1206589,Dy2FeSi2,-0.7019300590000007
mp-1225932,Dy2Ga3(Fe7C)2,-0.1470634336904766
mp-1225455,Dy2Ga3Co,-0.5474457633333335
mp-1225325,Dy2Ga3Cu,-0.5896435983333342
mp-1203342,Dy2Ga3Fe14,-0.10389841263158037
mp-1225386,Dy2Ga3Ni,-0.6165797083333331
mp-1189362,Dy2Ga5Cu12,-0.21548200842105147
mp-1102381,Dy2Ga8Co,-0.4803055136363635
mp-1102259,Dy2Ga8Fe,-0.4342872481818189
mp-1184152,Dy2GaAg,-0.4573176625000004
mp-1225427,Dy2GaCu3,-0.37670174166666587
mp-1184160,Dy2Ge2O5,-2.2993870873611097
mp-772793,Dy2Ge2O7,-3.079156298295455
mp-1205905,Dy2Ge2Ru,-0.797294482000001
mp-1225438,Dy2Ge3,-0.5065155069999996
mp-1190128,Dy2Ge5Ir3,-0.7065177454999991
mp-866028,Dy2Ge5Rh3,-0.7841566450000002
mp-1105812,Dy2Ge5Ru3,-0.6342027335000004
mp-1202284,Dy2Ge6Pd,-0.5775118294444445
mp-28351,Dy2GeO5,-3.3881480501562486
mp-850292,Dy2H16S3O20,-1.9506569004904264
mp-565245,Dy2Hf2(MoO4)7,-2.6651628179487186
mp-3611,Dy2Hf2O7,-4.032746083068182
mp-1198001,Dy2HfS5,-2.2983017212890617
mp-21351,Dy2In,-0.34736094777777754
mp-510050,Dy2In16Pt7,-0.5099430437333331
mp-1225405,Dy2In3Cu,-0.3912513133333337
mp-1184170,Dy2InAg,-0.3931319958333335
mp-21866,Dy2InAu2,-0.8159397746666663
mp-569877,Dy2InGe2,-0.7011091306666664
mp-984660,Dy2InHg,-0.4651393933333337
mp-1068319,Dy2InNi2,-0.5301390586666663
mp-20870,Dy2InPd2,-0.8715198146666665
mp-984104,Dy2IrAu,-0.8344441974999999
mp-865221,Dy2IrPd,-0.9050526075
mp-864999,Dy2IrRh,-0.8734858525
mp-865219,Dy2IrRu,-0.6002123612500005
mp-864888,Dy2Mg,-0.05493599999999965
mp-865006,Dy2MgAl,-0.2681197624999996
mp-1184111,Dy2MgCd,-0.18676971124999966
mp-1205987,Dy2MgCu2,-0.24144962299999906
mp-1184078,Dy2MgGa,-0.3340071349999998
mp-977559,Dy2MgGe2,-0.7711147139999994
mp-1206447,Dy2MgNi2,-0.3855254469999991
mp-1232131,Dy2MgS4,-2.2545334100892864
mp-1232083,Dy2MgSe4,-1.6805212691964282
mp-570561,Dy2MgSi2,-0.711342235
mp-1213085,Dy2MgTiO6,-3.720903543916667
mp-1225644,Dy2Mn(GeO3)4,-2.682969595313685
mp-1237201,Dy2Mn12Ga5,-0.002328817894736128
mp-1190617,Dy2Mn12P7,-0.7068172945238086
mp-779967,Dy2Mn2O7,-2.905337530060909
mp-1191383,Dy2Mn3Cu9P7,-0.4223002559523799
mp-1225368,Dy2Mn3Sb3O14,-2.474011368426363
mp-505334,Dy2Mn3Si5,-0.6268354179999989
mp-1237349,Dy2MnCoO6,-2.627396829845999
mp-1104659,Dy2MnNiO6,-2.810650199346
mp-1225344,Dy2MnSbO7,-2.972467361337273
mp-1025363,Dy2Mo2C3,-0.3472373423214279
mp-1190424,Dy2Mo2O7,-2.9896988721590905
mp-1203751,Dy2Mo3H2Se2O17,-2.2239555434875955
mp-1213187,Dy2Mo4O15,-2.6013325385119046
mp-1198422,Dy2Mo8O33,-1.7431178563081398
mp-542476,Dy2MoO6,-3.2434162211111097
mp-1205065,Dy2N3,-0.7155998404279984
mp-1197659,Dy2Nb2Fe15,-0.019077051578947436
mp-754120,Dy2Nb2O7,-3.405402094431818
mp-1204935,Dy2Nb2S7O30,-2.397692912705792
mp-1204364,Dy2Nb3Ge4,-0.7306350311111116
mp-1225329,Dy2NbGaO7,-3.3280827157954547
mp-1191758,Dy2Ni12As7,-0.5323984945238099
mp-1197654,Dy2Ni17,-0.1981353813157908
mp-1197710,Dy2Ni22C3,-0.12672842671296142
mp-1079840,Dy2Ni2Sn,-0.593695658
mp-1197874,Dy2Ni7,-0.3931486008333328
mp-568709,Dy2Ni7Sn3,-0.42408612375000015
mp-1078556,Dy2NiAs2,-1.2387129469999991
mp-864886,Dy2NiIr,-0.6475967549999995
mp-864917,Dy2NiRu,-0.3925596962500002
mp-1213197,Dy2NiRuO6,-2.6075608517500006
mp-1225313,Dy2NiSb4,-0.7197042500000005
mp-1079605,Dy2NiSn6,-0.4554153500000003
mp-1213167,Dy2OsC2,-0.3835270514999991
mp-984534,Dy2OsPd,-0.5513411212500001
mp-771147,Dy2P4O13,-3.1866793905169177
mp-1225373,Dy2P7Rh12,-0.929010180238096
mp-769222,Dy2Pb2O7,-2.567731685340909
mp-675209,Dy2PbS4,-1.9459684616071429
mp-31088,Dy2Pd2Pb,-0.8364249599999993
mp-1225328,Dy2PdPt,-1.1112429287500003
mp-1184072,Dy2PdRh,-0.8882849449999997
mp-865216,Dy2PdRu,-0.6499097637499993
mp-1103421,Dy2Pt,-0.9461893316666659
mp-1178365,Dy2Pt2O7,-2.4752026603409094
mp-1025240,Dy2Re2Si2C,-0.623353751964286
mp-1196838,Dy2Re3Si5,-0.5924130252499993
mp-1204645,Dy2ReB6,-0.6272026405555562
mp-1188135,Dy2ReC2,-0.42256344799999823
mp-14968,Dy2Ru2O7,-2.6111905198863634
mp-865222,Dy2RuRh,-0.6191689612499998
mp-8324,Dy2S2O,-3.045320277875
mp-1213557,Dy2S3O20,-1.2609746414875005
mp-12669,Dy2SO2,-3.6344194613124974
mp-769138,Dy2Sb2O7,-2.8417840859469687
mp-13451,Dy2Sb5,-0.6409410228571427
mp-1178366,Dy2SbO2,-3.0203930455000005
mp-1213190,Dy2Sc3Si4,-0.8291835999999996
mp-1225349,Dy2ScNbO7,-3.7196541776136383
mp-7368,Dy2Se3,-1.86405303815625
mp-769284,Dy2SeO2,-3.4122564682187515
mp-1194579,Dy2SeOF2,-3.678158226759513
mp-17062,Dy2Si2O7,-3.6795191064772728
mp-1225291,Dy2Si3,-0.6152437139999989
mp-1225306,Dy2Si3Ni,-0.6932075500000003
mp-1213111,Dy2Si3Pd,-0.8896386687499996
mp-1191528,Dy2Si3Rh,-0.9369124754166668
mp-1189145,Dy2Si4Mo3,-0.667711164444444
mp-15205,Dy2Si5Ni3,-0.7937835014999998
mp-1188825,Dy2Si5Rh3,-0.9751304265
mp-1225372,Dy2Si9B36C,-0.2074126585156245
mp-768317,Dy2SiO5,-3.83474528890625
mp-18219,Dy2SiSeO4,-3.3638589132617183
mp-20845,Dy2Sn2O7,-3.046760316704545
mp-1106269,Dy2Sn5Rh3,-0.7376906939999998
mp-1105466,Dy2SnAu2,-0.8398854770000007
mp-1120784,Dy2SnS3,-1.6536084928645838
mp-1189757,Dy2SnS5,-1.830204605664063
mp-558960,Dy2Tc2O7,-2.841287017159092
mp-505682,Dy2Te,-0.8743405175000005
mp-1120810,Dy2Te3Se,-0.9691531589322924
mp-510342,Dy2Te4O11,-2.3212796111029412
mp-1103932,Dy2Te5,-1.0108913842857146
mp-555940,Dy2Te5O13,-2.2116514238125
mp-16037,Dy2TeO2,-3.2611728225000007
mp-768313,Dy2TeO6,-3.0436225897222235
mp-1225289,Dy2TeS2,-2.1279877076250004
mp-1225647,Dy2Ti12(CuO4)9,-2.729599442118644
mp-752425,Dy2Ti2O7,-3.8078259960984866
mp-770816,Dy2TiO5,-3.904742374114583
mp-30625,Dy2Tl,-0.25771210999999994
mp-866008,Dy2TlAg,-0.3428318212499999
mp-1184105,Dy2TlHg,-0.40534175125
mp-1184139,Dy2TlIn,-0.3912381145833329
mp-1184062,Dy2TlZn,-0.32077146249999977
mp-642823,Dy2V2O7,-3.2477266976136363
mp-1225428,Dy2VFeO6,-2.9846677837500004
mp-1200746,Dy2VO5,-3.4577868260937503
mp-772682,Dy2W2O9,-2.9019452020192302
mp-770559,Dy2WO6,-3.3226640994444447
mp-1184129,Dy2Y2O5,-3.2675126851388887
mp-1225383,Dy2YTaO7,-3.871619344886364
mp-30964,Dy2Zn17,-0.2301607444736841
mp-1184095,Dy2ZnAg,-0.33375085625
mp-865156,Dy2ZnGa,-0.48240358375
mp-984627,Dy2ZnHg,-0.3937300612499999
mp-984544,Dy2ZnIr,-0.6246415812499988
mp-865004,Dy2ZnOs,-0.2877847649999996
mp-1184070,Dy2ZnPt,-0.7850365137499997
mp-1184107,Dy2ZnRh,-0.6128535262499994
mp-865017,Dy2ZnRu,-0.3659914424999995
mp-1193407,Dy2ZnS4,-2.0778881155357145
mp-1190527,Dy2ZnTe2(SO7)2,-2.4565781195535705
mp-754302,Dy2Zr2O7,-3.884521523522727
mp-675835,Dy2Zr8O19,-3.9415689132327576
mp-1199023,Dy2ZrS5,-2.288081254101564
mp-22808,Dy3(AgSn)4,-0.482179519090909
mp-1225412,Dy3(Al2Fe)2,-0.36283002277777776
mp-1213200,Dy3(Al3Os)4,-0.5913566118421054
mp-1195540,Dy3(Al3Ru)4,-0.657908627894737
mp-16807,Dy3(AlNi3)2,-0.5643021286363634
mp-1213577,Dy3(Co2Sn)4,-0.2973953673333322
mp-1079307,Dy3(CoGe2)2,-0.7196630088888891
mp-22039,Dy3(CuGe)4,-0.6324827472727269
mp-12732,Dy3(CuSi)4,-0.6389117618181818
mp-20844,Dy3(CuSn)4,-0.5076463472727274
mp-1225660,Dy3(Ga2Cu)2,-0.5514581550000004
mp-1191661,Dy3(GaNi3)2,-0.5513904363636367
mp-645630,Dy3(Ge3Pt2)2,-0.8721342805769231
mp-1213229,Dy3(GeRh)2,-0.9299117332142858
mp-1207275,Dy3(In2Co)2,-0.3687988703703703
mp-1213204,Dy3(P3Pd10)2,-0.7285244445812817
mp-1213109,Dy3(SbPd2)4,-0.8336968049999995
mp-1213199,Dy3(Si3Pd10)2,-0.8278809044827589
mp-1202318,Dy3(Si3Ru)4,-0.6449378457894748
mp-1191905,Dy3(SiNi3)2,-0.6550596395454549
mp-1184122,Dy3Al,-0.1928565375
mp-571624,Dy3Al2,-0.31885014699999986
mp-1196242,Dy3Al2(Ni2H3)3,-0.4621219956289998
mp-772195,Dy3Al5O12,-3.7150122242500014
mp-29676,Dy3AlC,-0.3873459297499992
mp-1191595,Dy3AlCoS7,-1.9352700194531247
mp-1191911,Dy3AlFeS7,-1.9329666723697931
mp-1017557,Dy3AlN,-0.9947816524759994
mp-1192283,Dy3AlNi8,-0.4523935304166666
mp-1192418,Dy3AlNiS7,-1.9361289452864583
mp-1184133,Dy3As,-0.3989710562499997
mp-1213062,Dy3B7Mo,-0.5881855056060604
mp-1191614,Dy3B7W,-0.5870803969696978
mp-645246,Dy3BWO9,-3.3978405959226183
mp-1191669,Dy3BeCrS7,-1.9642752036197928
mp-1184068,Dy3Bi,-0.3358182987499996
mp-1225336,Dy3Bi(Ru2O7)2,-2.3538394214772738
mp-1213387,Dy3C4,-0.3177612352857149
mp-646392,Dy3Co,-0.15924782874999988
mp-30907,Dy3Co11B4,-0.3686106748148145
mp-758934,Dy3Co29(Si2B5)2,-0.4178844524275353
mp-1212856,Dy3Co2Si3,-0.7400431331249999
mp-1197092,Dy3Co4Ge13,-0.4131076292499991
mp-20703,Dy3Co6Sn5,-0.3405131617857141
mp-1212952,Dy3CrS6,-2.1290262274375005
mp-1213597,Dy3Cu20Sb11,-0.17114464514705888
mp-1189135,Dy3Cu3Sb4,-0.7213493809999989
mp-558740,Dy3CuGeS7,-1.8227508857031256
mp-505558,Dy3CuGeSe7,-1.2634383237630218
mp-1225646,Dy3CuSe6,-1.4118870856562502
mp-557998,Dy3CuSiS7,-1.911904689869792
mp-569557,Dy3CuSiSe7,-1.310498883763021
mp-561499,Dy3CuSnS7,-1.8037100465364588
mp-510539,Dy3CuSnSe7,-1.2617214095963547
mp-1184100,Dy3Er,0.02400223124999901
mp-9442,Dy3Fe2Si3,-0.6610248749999998
mp-1212851,Dy3Fe2Si7,-0.6145901675
mp-645157,Dy3Fe5O12,-2.685219178125
mp-1192098,Dy3FeB7,-0.5941478337878798
mp-1213672,Dy3Ga15Ru4,-0.5065858328409095
mp-1205197,Dy3Ga2,-0.534344847500001
mp-1196980,Dy3Ga5,-0.6517112315625004
mp-15576,Dy3Ga5O12,-2.9889358682500005
mp-1104443,Dy3Ga8Ir3,-0.6488973814285716
mp-1104487,Dy3Ga8Rh3,-0.7099440164285714
mp-1104450,Dy3Ga9Pt2,-0.6702664992857146
mp-20922,Dy3GaC,1.1840685162500002
mp-1192256,Dy3GaCoS7,-1.8463133615364584
mp-1192184,Dy3GaFeS7,-1.8503528648697933
mp-1191163,Dy3GaNiS7,-1.846460637786458
mp-31113,Dy3GaO6,-3.6104280527500014
mp-1203111,Dy3Ge13Ir4,-0.5018512532499997
mp-1204800,Dy3Ge13Os4,-0.3365745375000003
mp-1204450,Dy3Ge13Rh4,-0.5353141377499995
mp-1197267,Dy3Ge13Ru4,-0.43380011999999935
mp-1189819,Dy3Ge3Ru2,-0.7658923968750004
mp-655448,Dy3Ge4,-0.7855871328571423
mp-505577,Dy3Ge5,-0.7076665550000003
mp-1191600,Dy3GeO8,-2.9097930999999995
mp-1184059,Dy3Hg,-0.14789904000000045
mp-1184065,Dy3Ho,0.021914493749999764
mp-20786,Dy3In,-0.26322166583333395
mp-1212972,Dy3In5,-0.4424881064583337
mp-31056,Dy3InN,-1.0741493831426667
mp-1199841,Dy3InS6,-2.0816877250208337
mp-1105615,Dy3Ir,-0.575573866250001
mp-1204219,Dy3Ir2,-0.7966632487142851
mp-1184174,Dy3Lu,-0.0005813400000000968
mp-1225309,Dy3Mg,-0.0179158325000004
mp-21038,Dy3Mn3Ga2Si,-0.3433355144444437
mp-1191235,Dy3MnAlS7,-1.964092556953125
mp-676951,Dy3NbO7,-3.719815164886366
mp-542729,Dy3Ni13B2,-0.43637011518518576
mp-1197227,Dy3Ni19B10,-0.43189785083333376
mp-7281,Dy3Ni2,-0.36642911200000017
mp-18399,Dy3Ni7B2,-0.5072058965277767
mp-1213457,Dy3NiGe2,-0.7907880324999995
mp-1225399,Dy3NiPd2,-0.7504780275000004
mp-1189887,Dy3Os,-0.263389615625
mp-19818,Dy3PbC,-0.5371613377500004
mp-12543,Dy3Pd2,-0.7346161010000003
mp-1104399,Dy3Pd4,-0.9398623878571428
mp-1105479,Dy3Pt,-0.7092818543750008
mp-1104664,Dy3Pt4,-1.2371494549999995
mp-1190970,Dy3ReB7,-0.6124603299242427
mp-555247,Dy3ReO7,-3.3834719746590918
mp-1205201,Dy3Rh2,-0.7699587652857149
mp-1105841,Dy3Ru,-0.32952714687500073
mp-30157,Dy3S2Cl5,-2.6139056119425
mp-556247,Dy3S3N,-2.3278958752953574
mp-556095,Dy3S4,-2.3658809908928577
mp-1225346,Dy3SOF5,-4.10165704762625
mp-984350,Dy3Sb4Au3,-0.8143418700000005
mp-768638,Dy3Sb5O12,-2.682289285499999
mp-1103799,Dy3SbO3,-3.16650346125
mp-1212841,Dy3SbO7,-3.4468657167045453
mp-1213138,Dy3Sc2Al3O12,-3.8403355271250006
mp-1095468,Dy3Sc2S7,-2.4052728615364587
mp-567391,Dy3Se3N,-1.8973649868801783
mp-571400,Dy3Se4,-1.7716728649107143
mp-555217,Dy3Se4O12F,-2.5001489385282496
mp-1200984,Dy3Si11Pt23,-0.8744780951351343
mp-560593,Dy3Si2Cl5O6,-3.2353237355500006
mp-1192305,Dy3Si2Ni,-0.7362323612500005
mp-16164,Dy3Si3O10F,-3.738194978011176
mp-19899,Dy3SnC,-0.6266542527500001
mp-755652,Dy3TaO7,-3.8827307667045456
mp-1192365,Dy3Te3N,-1.5589773771257145
mp-22513,Dy3TlC,1.6157058032499996
mp-1184064,Dy3Tm,0.0258210649999997
mp-1184098,Dy3V,0.3218254399999996
mp-1184145,Dy3Y,0.0027340875000003697
mp-752458,Dy3Y5O12,-4.0019921185000005
mp-1104161,Dy3Zn11,-0.3238513953571425
mp-1183825,Dy3Zr,0.09426979749999907
mp-18108,Dy4(B2O5)3,-3.391409800749998
mp-10771,Dy4(SiS4)3,-1.8302241021710528
mp-1212993,Dy4Al2O9,-3.84684565175
mp-1196433,Dy4B4O11F2,-3.5798507656093648
mp-1201047,Dy4BClO7,-3.74645420028282
mp-1212812,Dy4C5,-0.3232111015277768
mp-571376,Dy4CdCo,-0.2472137991666674
mp-1212892,Dy4CdIr,-0.525872976666666
mp-1212922,Dy4CdNi,-0.30504099666666623
mp-1212939,Dy4CdPd,-0.4580910070833338
mp-1212919,Dy4CdPt,-0.6167344629166666
mp-1225330,Dy4CdS7,-2.178993735286459
mp-1225331,Dy4CdSe7,-1.6117468387630207
mp-1213098,Dy4Co,0.30084471199999924
mp-1225451,Dy4Co3,-0.165231943809523
mp-1200694,Dy4CoB13,-0.4729718331481483
mp-1205385,Dy4CrGa12,-0.4846008423529419
mp-1225384,Dy4CrSe7,-1.5639735308463536
mp-1225338,Dy4Cu5P7,-0.8119272134375004
mp-1225912,Dy4Cu7Sn11,-0.275006297045454
mp-1213260,Dy4Fe,0.4247071410000004
mp-1226156,Dy4Fe28BC,-0.09122211677696074
mp-1226028,Dy4Fe29Si5,-0.12119102263158026
mp-1225442,Dy4FeSe7,-1.5110042675130206
mp-1189987,Dy4Ga12Fe,-0.5188937358823525
mp-1189966,Dy4Ga12Ni,-0.5426680405882351
mp-1188432,Dy4Ga12Pd,-0.5874851170588229
mp-1212792,Dy4Ga12Pt,-0.6093689482352941
mp-1191222,Dy4Ga16Co3,-0.5026837786956524
mp-1185142,Dy4Ga21Ni10,-0.5064325445714287
mp-1105803,Dy4Ge6Ir7,-0.8628485847058819
mp-1181515,Dy4Ge6Rh7,-0.9416467711764712
mp-20748,Dy4In(NiGe2)2,-0.7805675857575755
mp-1213615,Dy4In20Ni11,-0.2568915784761909
mp-1201054,Dy4In5S13,-1.579826726112689
mp-1213425,Dy4InIr,-0.5762224168055555
mp-571230,Dy4InRh,-0.5535763938888886
mp-1205839,Dy4Mg3Co2,-0.16063934888888948
mp-1212913,Dy4MgCo,-0.15015116708333429
mp-1212923,Dy4MgIr,-0.4279659466666672
mp-1212902,Dy4MgNi,-0.20611287999999967
mp-571208,Dy4MgRh,-0.3975808658333335
mp-1212975,Dy4MgRu,-0.2423866712500005
mp-1225333,Dy4MgS7,-2.3361661673697927
mp-1213216,Dy4Mn,0.5466161939999992
mp-1225337,Dy4MnS7,-2.1838607523697924
mp-1225351,Dy4MnSe7,-1.6008806683463543
mp-1213233,Dy4Ni,0.2327909730000001
mp-569213,Dy4Ni12Sn25,-0.3252984554878059
mp-1190673,Dy4Ni13C4,-0.3435460511904756
mp-1225392,Dy4Ni3Bi8,-0.4581376059999997
mp-1203435,Dy4NiB13,-0.4728954245370368
mp-1212808,Dy4Rh,0.07847585600000002
mp-16587,Dy4Si2S3O7,-3.3086345219335938
mp-1201962,Dy4Te3N2,-1.6426307005288894
mp-1095296,Dy4Te3S4,-1.9445553805681808
mp-1225322,Dy4Te7,-1.2368250572727275
mp-1194035,Dy4Zn5Ge6,-0.4773830970000001
mp-1201480,Dy5(CoSn3)6,-0.35204467405172435
mp-1197115,Dy5(Ge5Ir2)2,-0.7547716486842098
mp-1202174,Dy5(Ge5Rh2)2,-0.7870524618421056
mp-1212911,Dy5(GeSb)2,-0.9706082272222218
mp-607124,Dy5(In2Ni)2,-0.518418771666667
mp-1105361,Dy5(MoO6)2,-3.3970976250000016
mp-766367,Dy5(ReO6)2,-3.3753396
mp-1198889,Dy5(Si5Ir2)2,-0.8727757260526307
mp-1212823,Dy5(SiB4)2,-0.6733998535555552
mp-1212829,Dy5(SiSb)2,-0.918363183888888
mp-1226406,Dy5(Sn3Os)6,-0.2944312827586206
mp-1225803,Dy5(Sn3Rh)6,-0.5478315851724137
mp-35512,Dy5AgS8,-2.205142263750001
mp-18628,Dy5B2C5,-0.4332817020486104
mp-1212938,Dy5B3O13,-3.4608764257738094
mp-757587,Dy5Bi11O24,-2.358655601625
mp-31464,Dy5Bi3,-0.6793946421875008
mp-1181507,Dy5BiAu2,-0.6891116456250002
mp-1212882,Dy5BiPd2,-0.6938640549999997
mp-1212863,Dy5BiPt2,-0.9216842012499996
mp-567407,Dy5C2Br9,-1.6008850260937495
mp-570607,Dy5C2I9,-1.2221404917187502
mp-669497,Dy5Cl11,-2.27529274442875
mp-1225778,Dy5Co19P12,-0.8878488996031746
mp-1212904,Dy5Co2Bi,-0.34308068624999954
mp-1213372,Dy5CoBi2,-0.5533699784374999
mp-510593,Dy5CoSb2,-0.7127801543749994
mp-1213290,Dy5CuPb3,-0.4867059572222219
mp-542342,Dy5Ga3,-0.4832624262500005
mp-1105737,Dy5Ge3,-0.7950326906249998
mp-1181755,Dy5Ge3B,-0.6420356790740738
mp-568144,Dy5In3,-0.3853326062499995
mp-1200226,Dy5Ir3,-0.8046092618749991
mp-1183822,Dy5Mg,0.01566292833333331
mp-672670,Dy5Mg24,-0.035438584827586016
mp-1200833,Dy5Mg5Al12(Fe2Si3)2,-0.3729358718750007
mp-1212912,Dy5Ni2Bi,-0.4547094918749997
mp-9353,Dy5Ni2Sb,-0.5329584062499997
mp-640372,Dy5NiPb3,-0.5235140999999999
mp-1225469,Dy5P12Ir19,-0.79318663515873
mp-8760,Dy5P12Ru19,-0.8623218161309533
mp-1189839,Dy5Pt3,-1.0064830212500002
mp-1202228,Dy5Pt4,-1.1670598122222218
mp-30622,Dy5Ru2,-0.3573228885714294
mp-1103125,Dy5S7,-2.4602830048697917
mp-1181498,Dy5SbAu2,-0.7585201999999995
mp-1212864,Dy5SbPd2,-0.7710655724999995
mp-1212858,Dy5SbPt2,-0.9950358587499996
mp-1225385,Dy5Sc5(Si5Ir2)4,-0.8914470699999996
mp-1225574,Dy5Si2BO13,-3.7385955537103177
mp-2836,Dy5Si3,-0.6827993656249998
mp-13237,Dy5Si3B,-0.5311582635185188
mp-542828,Dy5Si4,-0.7462691755555555
mp-579518,Dy5Sn11,-0.5542734996874996
mp-574085,Dy5Sn13,-0.4961042586111112
mp-778274,Dy5Ti5O17,-3.720844373688272
mp-1181553,Dy5Tl3,-0.294693943125
mp-1198172,Dy5Zr3(Ni4As3)4,-0.8317766575000007
mp-1225417,Dy6Ag(GeS7)2,-1.8208224563858704
mp-1225400,Dy6Al2SiS14,-2.082220999429348
mp-1198914,Dy6Al43Cr4,-0.26899854679245305
mp-1232410,Dy6Al43Mo4,-0.315375682924528
mp-1213242,Dy6Al43V4,-0.3112809918867931
mp-1200455,Dy6Al43W4,-0.2746811490566043
mp-1194170,Dy6Al7Cu16,-0.3689618362068967
mp-1213323,Dy6Cl13,-2.2598840148621053
mp-1213286,Dy6Co2Sn,-0.3303382855555562
mp-1079700,Dy6CoTe2,-0.6601358944444458
mp-1194041,Dy6Cu23,-0.19396372827586253
mp-540604,Dy6Fe16O,0.4755884082065212
mp-1194186,Dy6Fe23,-0.051072768965517636
mp-1205871,Dy6FeBi2,-0.4116300133333337
mp-4189,Dy6FeSb2,-0.5497397111111124
mp-1225770,Dy6Ga19Pt3,-0.5701057271428576
mp-1189487,Dy6GaNi2,-0.3561331461111108
mp-1196453,Dy6H40N8O49,-1.6686220702435917
mp-1213291,Dy6InCo2,-0.2617313431481484
mp-1225380,Dy6Mg(GeS7)2,-1.9704679616032608
mp-1225409,Dy6Mn(SiS7)2,-1.9939735176902176
mp-1192635,Dy6Mn23,0.025132257586206158
mp-1207016,Dy6MnBi2,-0.4035483722222221
mp-1213432,Dy6N8O33,-1.680017829155106
mp-1213257,Dy6Nb4Al43,-0.3308323994339623
mp-1106355,Dy6Ni2Sn,-0.4009126761111112
mp-32633,Dy6Se11,-1.6706745964430143
mp-1213274,Dy6Ta4Al43,-0.3063855575471697
mp-567159,Dy6Ti4Al43,-0.33494900559748403
mp-1193674,Dy6Zn23,-0.3051579936206899
mp-676306,Dy7(CuTe4)3,-1.1371596140909093
mp-567598,Dy7(TeIr)2,-0.9138032345454548
mp-1212830,Dy7(TePd)2,-0.8437451463636365
mp-1206619,Dy7(TePt)2,-1.0197180445454543
mp-1213462,Dy7BP2O17,-3.686592579896384
mp-1201241,Dy7C2I12O,-1.4835482524431818
mp-1213064,Dy7Co6Sn23,-0.4108108670833329
mp-641778,Dy7In(CoGe3)4,-0.6820851684722223
mp-1105786,Dy7Rh3,-0.6177459969999994
mp-1191058,Dy8Ga3Co,-0.3991791320833329
mp-1192724,Dy8In3Co,-0.3440065895833329
mp-1213609,Dy8Ni18P11,-0.9862047865830116
mp-556015,Dy9(SbO)5,-2.3811383384868425
mp-1226139,Dy9Al5S21,-2.117115487294643
mp-1226050,Dy9Al5Se21,-1.4831469881562498
mp-1225776,Dy9B5S21,-1.8532218076755955
mp-1212988,DyAg(WO4)2,-2.3822675125000004
mp-2618,DyAg2,-0.3235432866666669
mp-1183815,DyAg3,-0.2252549699999995
mp-866657,DyAgH2C2SO9,-1.9998042343782825
mp-510687,DyAgPb,-0.4023431800000002
mp-1200233,DyAgS2,-1.6547544835937504
mp-10965,DyAgSb2,-0.609833996249999
mp-1181462,DyAgSe2,-1.2084282786718754
mp-21198,DyAgSn,-0.5939300099999988
mp-1225262,DyAgSn2,-0.4408062324999995
mp-4024,DyAgTe2,-0.9152240912499998
mp-433,DyAl,-0.41530938250000027
mp-803,DyAl2,-0.5178146733333335
mp-569385,DyAl2Ni,-0.6361769237499999
mp-864995,DyAl3,-0.4292030887499996
mp-1212827,DyAl3(BO3)4,-3.2670597925833333
mp-1212853,DyAl3Ni2,-0.6526875944444441
mp-31180,DyAl4Ni,-0.5482174299999999
mp-16623,DyAl7Au3,-0.511741642727273
mp-1225357,DyAl7Fe5,-0.3937595776923075
mp-862263,DyAlAg2,-0.33192478000000003
mp-1102191,DyAlAu,-0.7926166641666667
mp-1201129,DyAlB14,-0.1631401698958328
mp-1225308,DyAlCo4,-0.2526600650000006
mp-1078857,DyAlCu,-0.4555720922222217
mp-1225316,DyAlCu4,-0.2535631866666653
mp-1225267,DyAlGa,-0.5580654433333336