task_id,composition,formation_energy_per_atom
mp-1196341,Er4In5S13,-1.5620227336126895
mp-567685,Er4InIr,-0.5966255334722229
mp-571107,Er4InRh,-0.5685443976388894
mp-1212959,Er4MgCo,-0.15774023333333353
mp-1212983,Er4MgGe4,-0.7976999163888886
mp-1212947,Er4MgNi,-0.21148993416666664
mp-1212943,Er4MgRh,-0.4088706337499997
mp-1225593,Er4MgS7,-2.3307310907031265
mp-1225601,Er4MnS7,-2.1785375498697923
mp-554296,Er4Mo4O11,-2.8182223451973667
mp-1213096,Er4Ni,0.2375639769999993
mp-28147,Er4Ni13C4,-0.35723873404761874
mp-1206215,Er4Ni2C5,-0.3895642057954531
mp-1212840,Er4OsBr4,-1.2892981633333325
mp-12052,Er4Sb3,-0.9433639464285708
mp-6316,Er4Si2S3O7,-3.3004565466210947
mp-554009,Er4Si3O11F2,-3.835624136056501
mp-510706,Er4Si9Ir13,-0.9838540828846148
mp-1225662,Er4SiNi3,-0.5652695462500006
mp-1225684,Er4TaV7B24,-0.7383552322222218
mp-1225602,Er4ThCN4,-1.5758117278269992
mp-1225627,Er4US7,-2.2750347232031256
mp-1192836,Er4Zn5Ge6,-0.5293422079999994
mp-675065,Er4Zr3O12,-3.9802086105263164
mp-1199544,Er5(Co2Si7)2,-0.6571842717391306
mp-567517,Er5(CoTe)2,-0.7486814177777776
mp-1203614,Er5(Ge5Ir2)2,-0.7410144352631586
mp-1200777,Er5(Ge5Rh2)2,-0.7717945707894739
mp-1213113,Er5(GeSb)2,-0.95051083388889
mp-1213169,Er5(In2Pt)2,-0.8213475171212117
mp-1105166,Er5(MoO6)2,-3.3985294142105267
mp-567994,Er5(NiTe)2,-0.8139920549999999
mp-1213202,Er5(ReO6)2,-3.3951800918421062
mp-1195957,Er5(Si5Ir2)2,-0.8737854315789467
mp-1213158,Er5(SiSb)2,-0.9036854533333328
mp-1225985,Er5(Sn3Rh)6,-0.5432882774137933
mp-638521,Er5Al3Ni3Ge4,-0.7820172906666659
mp-1199169,Er5B2(O2F3)3,-4.057435256206516
mp-1181438,Er5BiAu2,-0.6944118006250006
mp-1213208,Er5BiPd2,-0.7015976462500007
mp-31462,Er5BiPt2,-0.9327943718750004
mp-29401,Er5C2Br9,-1.5888298201562496
mp-1225819,Er5Co19P12,-0.8971330989087305
mp-510595,Er5CoSb2,-0.7000565406249999
mp-1213285,Er5CuPb3,-0.467971575555556
mp-1225757,Er5Ga2As,-0.7046566700000003
mp-11368,Er5Ga3,-0.4741516725000001
mp-11854,Er5Ge3,-0.80261827
mp-1105712,Er5Ge3C,-0.7389311687499998
mp-1195860,Er5Ge4,-0.8426435869444452
mp-1189039,Er5In3,-0.3430502943749998
mp-1213219,Er5InNi2,-0.3693818504166666
mp-1201760,Er5Ir3,-0.8482103165624997
mp-1184181,Er5Mg,0.02124419416666553
mp-2218,Er5Mg24,-0.03190063568965498
mp-1213249,Er5Ni2Bi,-0.4649474599999994
mp-1213207,Er5Ni2Sb,-0.5489641075000007
mp-1225792,Er5P12Ir19,-0.7867791097420643
mp-1200410,Er5P12Ru19,-0.8594235890476196
mp-1195885,Er5Pt4,-1.2064178936111114
mp-1213155,Er5Re2C7,-0.40228083723214375
mp-569915,Er5Rh3,-0.7590405712500008
mp-1095508,Er5S7,-2.448723341953125
mp-12960,Er5Sb3,-0.8832678893750003
mp-1188308,Er5SbAu2,-0.7656140425000002
mp-1213250,Er5SbPd2,-0.7834794943750003
mp-1213201,Er5SbPt2,-1.009504020625
mp-1213244,Er5Si3B,-0.5483540385185195
mp-652550,Er5Si3C,-0.5869493383796294
mp-568446,Er5Si4,-0.7464270230555559
mp-31385,Er5Sn3,-0.7076981312499999
mp-1105965,Er5Tl3,-0.2884792200000001
mp-569804,Er5Zr3(Ni4As3)4,-0.8218416365277782
mp-1225741,Er6Ag(GeS7)2,-1.8019372637771744
mp-1225632,Er6Al2Ge7,-0.7107827303333333
mp-1213348,Er6Al3Si,-0.39976378650000016
mp-1226597,Er6Al41Cr6,-0.2762051159433961
mp-1201665,Er6Al43Cr4,-0.26394159877358503
mp-1198488,Er6Al43Mo4,-0.308742080377359
mp-1213427,Er6Al43V4,-0.3058502098113214
mp-1200512,Er6Al43W4,-0.2679476052830184
mp-1193693,Er6Al7Cu16,-0.3768575586206894
mp-1213336,Er6Co2Sn,-0.3495537022222221
mp-1206841,Er6CoBi2,-0.452242947777777
mp-1189721,Er6CoBr10,-1.5528503894117642
mp-1079725,Er6CoTe2,-0.6524847988888882
mp-2162,Er6Fe23,-0.07706214551724158
mp-1206002,Er6FeBi2,-0.4138815333333328
mp-1206054,Er6FeSb2,-0.5556607288888884
mp-1225900,Er6Ga17Pd5,-0.6590930489285708
mp-1189112,Er6GaNi2,-0.3765298055555554
mp-1196832,Er6H40N8O49,-1.6702776405348538
mp-571258,Er6I7,-0.9050449569230772
mp-1213258,Er6InCo2,-0.2847762309259257
mp-1188271,Er6IrI10,-1.2552812376470583
mp-1225748,Er6Mg(GeS7)2,-1.953615098125001
mp-1225784,Er6Mn(GeS7)2,-1.879622451168479
mp-1225711,Er6Mn(SiS7)2,-1.9739347742119573
mp-1193393,Er6Mn23,-0.0035502599999992115
mp-1213481,Er6Mn4Al43,-0.26508357122641496
mp-1205843,Er6MnSb2,-0.5358906155555556
mp-1078859,Er6MnTe2,-0.5792174355555559
mp-1213435,Er6Nb4Al43,-0.3244409826415089
mp-1213480,Er6Ni20As13,-0.6825969419230776
mp-1213358,Er6Ni20P13,-0.9185243155860806
mp-3816,Er6Ni2Sn,-0.4216267944444449
mp-1188388,Er6NiI10,-1.1888090329411771
mp-1225896,Er6Si11N20O,-1.6630154276013147
mp-1213424,Er6Ta4Al43,-0.2997465711320754
mp-754673,Er6Te2Ru,-0.7335010883333339
mp-1213416,Er6Ti4Al43,-0.3323345693710693
mp-30615,Er6Zn23,-0.2976884077586204
mp-1213175,Er7(AgTe)2,-0.5710230140909093
mp-685943,Er7(CuTe4)3,-1.1086523234090908
mp-29914,Er7(NiTe)2,-0.6762226095454544
mp-1190197,Er7(TeAu)2,-0.8263120850000004
mp-1206617,Er7(TeIr)2,-0.9264081068181814
mp-1205487,Er7(TePd)2,-0.8452410786363636
mp-1205780,Er7(TePt)2,-1.0248050931818184
mp-1205489,Er7(TeRh)2,-0.8834122022727268
mp-679936,Er7C2I12N,-1.3293466595399999
mp-1213283,Er7Co6Sn23,-0.3959658188888895
mp-1105583,Er7CoI12,-1.199362106749999
mp-1106187,Er7FeI12,-1.16493769675
mp-1105808,Er7IrI12,-1.2606643192500002
mp-30612,Er7Rh3,-0.6494897264999999
mp-28833,Er7Ru2C11,-0.2852710160625008
mp-862995,Er8Ga3Co,-0.4150153954166669
mp-1190234,Er8In3Co,-0.3496210183333333
mp-1225972,Er8Mn3Mo5O28,-3.0420497035881806
mp-1213636,Er8Ni18P11,-0.9862301069884172
mp-1194174,Er9(FeGe)10,-0.5463158060344838
mp-1226348,Er9Al5S21,-2.098867469580357
mp-1226663,Er9B5S21,-1.8381256975327376
mp-1225990,Er9Ge4S21,-1.852555890303309
mp-1225712,Er9MnS14,-2.3169773871614585
mp-2621,ErAg,-0.33978993749999953
mp-13384,ErAg(PSe3)2,-0.5538317835848219
mp-19655,ErAg(WO4)2,-2.38300764125
mp-30339,ErAg2,-0.3339551983333333
mp-1184172,ErAg3,-0.22301795499999955
mp-570026,ErAgGe,-0.6433076044444439
mp-864646,ErAgHg2,-0.31907756624999983
mp-16745,ErAgPb,-0.3523425838888888
mp-1197880,ErAgS2,-1.6448463160937503
mp-4044,ErAgSe2,-1.201948839296875
mp-1225506,ErAgSn2,-0.4162132812500001
mp-12902,ErAgTe2,-0.8999320650000002
mp-1188739,ErAl,-0.4124211868750001
mp-1208,ErAl2,-0.5089232400000002
mp-31182,ErAl2Ni,-0.6462443062499998
mp-862656,ErAl3,-0.41379058675000097
mp-1106277,ErAl3(BO3)4,-3.267644042333334
mp-13490,ErAl3Ni2,-0.6564607430555556
mp-12020,ErAl4Ge2Au,-0.415977296875
mp-31183,ErAl4Ni,-0.5435473216666663
mp-16624,ErAl7Au3,-0.502306650909091
mp-1225641,ErAl7Fe5,-0.3961204203846161
mp-569739,ErAl9(Fe2Si3)2,-0.3963727471250003
mp-977535,ErAlAg2,-0.3316822562500001
mp-1102155,ErAlAu,-0.7936806225000002
mp-1198758,ErAlB14,-0.162402273333333
mp-1225728,ErAlCo,-0.3998274508333341
mp-1078592,ErAlCu,-0.4674885127777778
mp-1225584,ErAlCu4,-0.25543013416666643
mp-1225649,ErAlFe,-0.3218997408333344
mp-1225490,ErAlGa,-0.5404329816666671
mp-1213112,ErAlGeO5,-3.2094545898437508
mp-1078826,ErAlNi,-0.6221424416666671
mp-1225548,ErAlNi4,-0.5301245508333334
mp-756458,ErAlO3,-3.77923938525
mp-1102820,ErAlPd,-0.8956836191666669
mp-1102457,ErAlPt,-1.1769330216666667
mp-1206326,ErAlSi,-0.6125875450000008
mp-1072798,ErAlZn,-0.44985566333333377
mp-1688,ErAs,-1.51286189
mp-1184175,ErAs3,-0.4795013399999997
mp-772156,ErAsO4,-2.8701197533333325
mp-13271,ErAsPd,-1.1873330983333326
mp-1102478,ErAsPt,-1.1861149341666664
mp-1095614,ErAsS,-1.7625259580208337
mp-1102033,ErAsSe,-1.4166313661979164
mp-11243,ErAu,-0.8970932124999997
mp-2466,ErAu2,-0.8810796783333336
mp-1080756,ErAu3,-0.7238694750000003
mp-1070583,ErAu4,-0.5992885410000001
mp-1104598,ErB12,-0.2515500419230764
mp-1774,ErB2,-0.6241321094444446
mp-1189333,ErB2Os,-0.608930543333333
mp-6982,ErB2Rh2C,-0.580992712847222
mp-5678,ErB2Rh3,-0.7125310397222222
mp-1181423,ErB2Ru,-0.636744751458334
mp-5426,ErB3Mo,-0.6380095490000002
mp-2847,ErB4,-0.589312945333333
mp-1225576,ErB4(IrRh)2,-0.5543604307407395
mp-13342,ErB4Rh,-0.6241846827777783
mp-1191359,ErB4Ru,-0.6468414052777783
mp-1194043,ErBO3,-3.583304416749998
mp-1225493,ErBPtRh2,-0.8804897723333341
mp-3769,ErBRh3,-0.8184166423333338
mp-1193092,ErBe13,-0.18220532821428595
mp-1213271,ErBeNF6,-2.7670772555022216
mp-1184148,ErBeO3,-2.9026795807499988
mp-23245,ErBi,-0.8020054650000006
mp-546621,ErBi2BrO4,-2.3684725650000003
mp-549709,ErBi2ClO4,-2.4835798504075
mp-551250,ErBi2IO4,-2.2963011737500008
mp-1184182,ErBi3,-0.28491175499999954
mp-754943,ErBiO3,-2.8327442827500007
mp-1206953,ErBiPd,-0.9103391366666678
mp-30454,ErBiPt,-1.0268341999999997
mp-1205914,ErBiRh,-0.732638402222223
mp-1206859,ErBrO,-3.187516317083334
mp-1579,ErC2,-0.19443188750000093
mp-1199532,ErC3O8,-2.125760438229167
mp-1203936,ErC8N4Cl7,0.39733855313300026
mp-1196391,ErCO4,-2.5414005078472237
mp-867,ErCd,-0.31443339000000003
mp-11296,ErCd2,-0.3012222383333333
mp-11760,ErCd2Cu,-0.1532582575000001
mp-7303,ErCd3,-0.26594407374999984
mp-1227922,ErCd6,-0.16170717750000022
mp-977378,ErCdAg2,-0.2841972975
mp-1206166,ErCdAu,-0.6501776622222226
mp-1184163,ErCdAu2,-0.6853136675
mp-12008,ErCdCu4,-0.2509610899999994
mp-1078684,ErCdGa,-0.4909767222222222
mp-1184161,ErCdHg2,-0.3357911625000001
mp-1225540,ErCdIn,-0.3447336394444444
mp-1072598,ErCdNi4,-0.370356675
mp-863738,ErCdPd2,-0.7540930049999996
mp-1184167,ErCdPt2,-0.8489966999999998
mp-863739,ErCdRh2,-0.6011823674999999
mp-861968,ErCl2,-2.2273330071733333
mp-863029,ErCl3,-2.6540073311949994
mp-755689,ErClO,-3.5322161498366675
mp-6185,ErCo(CN)6,-0.2511503401271418
mp-537,ErCo2,-0.2416883433333344
mp-1225579,ErCo2(B2Rh)2,-0.5051323007407412
mp-411,ErCo3,-0.2062289212499996
mp-5353,ErCo3B2,-0.5155036863888883
mp-1225558,ErCo3Ni2,-0.20338761583333329
mp-1103425,ErCo3Si2,-0.7283373850000009
mp-2740,ErCo5,-0.11792414083333352
mp-1195740,ErCo5P3,-0.8480983679365091
mp-1198238,ErCo5Si3,-0.6152124087037039
mp-1191958,ErCo9Si2,-0.31954049124999884
mp-1213148,ErCo9Si4,-0.4811585117857139
mp-1213100,ErCoB4,-0.6123685331944438
mp-8475,ErCoC,-0.3387069929166676
mp-13501,ErCoC2,-0.3561809031250007
mp-1095692,ErCoGe,-0.6753150525000002
mp-1080067,ErCoGe2,-0.6062051999999998
mp-1200936,ErCoH8C6(N3O2)2,-0.733045862336154
mp-1225599,ErCoNi,-0.3287781149999998
mp-638632,ErCoO3,-2.6877193242500006
mp-1225544,ErCoRu,-0.2943451650000005
mp-3128,ErCoSi2,-0.7780568687499994
mp-1205515,ErCoSi3,-0.6545944930000005
mp-11851,ErCoSn,-0.4891620616666668
mp-30913,ErCoSn2,-0.3451151937499999
mp-1206309,ErCr2Si2C,-0.459064505625
mp-985700,ErCrB4,-0.6881150861111109
mp-1213301,ErCrGeO5,-2.8463060807812486
mp-744580,ErCrHO5,-2.4279612904525
mp-19063,ErCrO3,-3.2392628242499995
mp-19240,ErCrO4,-2.799140743333333
mp-1213667,ErCu(MoO4)2,-2.3053355662499992
mp-505167,ErCu(WO4)2,-2.389318604583333
mp-1024991,ErCu2,-0.28583813499999994
mp-555517,ErCu3Se2ClO8,-1.6152754840298331
mp-1077498,ErCu4Ag,-0.2285519958333329
mp-1077290,ErCu4Au,-0.3313923191666663
mp-1077518,ErCu4Pd,-0.37256397583333306
mp-30579,ErCu5,-0.1787557091666662
mp-1213224,ErCu5Sn,-0.2526770553571421
mp-10993,ErCuAs2,-0.7990744512499992
mp-9390,ErCuGe,-0.6835687549999996
mp-1225545,ErCuNi,-0.3248326316666657
mp-1184157,ErCuO3,-2.21291319375
mp-30196,ErCuP2,-0.8755765766964291
mp-1225628,ErCuPbS3,-1.43615620453125
mp-567983,ErCuPbSe3,-1.002504255130208
mp-12454,ErCuS2,-1.7081411632812502
mp-1079261,ErCuSb2,-0.5731397475
mp-675180,ErCuSe2,-1.1958401905468747
mp-8122,ErCuSi,-0.6683249433333334
mp-1206800,ErCuSn,-0.5874525666666663
mp-559895,ErCuTe2BrO6,-1.924943343409091
mp-555884,ErCuTe2ClO6,-2.007984347569091
mp-9371,ErF3,-4.492670135892499
mp-474,ErFe2,-0.12370251500000032
mp-1225877,ErFe2Co2B,-0.2793860911111115
mp-1201765,ErFe2H3,-0.26665388535166673
mp-1206739,ErFe2SiC,-0.5406237587500001
mp-569783,ErFe3,-0.10726644291666668
mp-1188611,ErFe4(CuO4)3,-1.7505077629999994
mp-3045,ErFe4B,-0.25325950277777903
mp-1200519,ErFe5P3,-0.7498483668253976
mp-1191434,ErFeB4,-0.6366952327777776
mp-1199768,ErFeC6(N3O2)2,0.16077548156777746
mp-1213524,ErFeC6N6O5,0.3363512224721065
mp-1225620,ErFeCo,-0.09045420666666716
mp-1225569,ErFeCu,-0.08728191833333318
mp-1087539,ErFeGe2,-0.4480046587500004
mp-1213525,ErFeGe2O7,-2.5467206544318177
mp-1225564,ErFeNi,-0.26271564999999936
mp-1225589,ErFeNi4,-0.25851937583333395
mp-24956,ErFeO3,-2.9770719487500004
mp-1225543,ErFeRu,-0.268136173333333
mp-1018077,ErGa,-0.6234195974999999
mp-2422,ErGa2,-0.6051407016666666
mp-1225514,ErGa2Cu3,-0.3562881058333331
mp-1025508,ErGa2Ni,-0.6453779049999993
mp-1225816,ErGa2Ni3,-0.5581232436111121
mp-1079745,ErGa2Pd,-0.7911421062499997
mp-398,ErGa3,-0.51957484875
mp-1213036,ErGa3Os,-0.4746902326666657
mp-1103943,ErGa3Ru,-0.5787591873333336
mp-1095496,ErGa4Ni,-0.5257060408333333
mp-1025225,ErGa5Co,-0.4591118049999997
mp-1103883,ErGa6,-0.2711914914285717
mp-1225546,ErGaAg,-0.4655832283333338
mp-1225586,ErGaAu,-0.7763862550000002
mp-11433,ErGaCo,-0.4941105433333337
mp-1102196,ErGaIr,-0.8853021233333335
mp-1102207,ErGaNi,-0.6549581974999997
mp-1213088,ErGaO3,-3.1985473200833345
mp-31387,ErGaPd,-0.9008195533333332
mp-1102669,ErGaPt,-1.1141130416666674
mp-1103035,ErGaRh,-0.9048687199999996
mp-863711,ErGaRh2,-0.8633264712499997
mp-2264,ErGe,-0.8529205624999996
mp-18606,ErGe2Ir,-0.7834538525000001
mp-17760,ErGe2Pt,-0.8402017362499992
mp-513,ErGe3,-0.4414342937499995
mp-12563,ErGeAu,-0.5763908199999997
mp-559109,ErGeBiO5,-2.6736428965625
mp-21153,ErGeIr,-0.9420003408333328
mp-1106394,ErGePd,-0.9841038038888884
mp-20819,ErGePd2,-0.9112624118749996
mp-13579,ErGePt,-1.1363895216666673
mp-20043,ErGeRh,-0.9946667200000002
mp-1213221,ErGeRh2,-0.8753149133333338
mp-19841,ErGeRu,-0.7315982474999991
mp-1007906,ErH,-0.4219307468100002
mp-860971,ErH(SO4)2,-2.4647078424370825
mp-1195359,ErH10C6S6N3O17F18,-1.6930620507440168
mp-24192,ErH2,-0.7900355640799995
mp-1199285,ErH2C2SNO9,-1.597369040620782
mp-1202664,ErH2Cl3O13,-1.1558401009615795
mp-1190750,ErH3,-0.7154612897983323
mp-24640,ErH3(SO4)3,-2.183490207265658
mp-1194964,ErH4I3O11,-1.4590621051700001
mp-675944,ErH9C5(NO4)2,-1.3188693992436002
mp-24051,ErHCl,-1.6575179106266669
mp-504801,ErHO2,-3.07706463278
mp-1206742,ErHSe,-1.47352649407125
mp-1184155,ErHfIr2,-0.8809967224999989
mp-1184159,ErHfRu2,-0.6058299949999988
mp-2468,ErHg,-0.4788538224999997
mp-866102,ErHg3,-0.32251727125
mp-866003,ErI3,-1.34629650625
mp-1181794,ErI3O10,-0.547877163214285
mp-1213243,ErI3O11,-1.0296373505833325
mp-1213502,ErIO9,-0.6213191094318176
mp-11370,ErIn,-0.4272298041666671
mp-1213359,ErIn2Pd,-0.6445967089166672
mp-1225483,ErIn2Sn,-0.4019635116666671
mp-1291,ErIn3,-0.3627000837500001
mp-12872,ErIn5Co,-0.21488747880952427
mp-1206255,ErIn5Rh,-0.3801503445238095
mp-30340,ErInAg2,-0.3548653645833335
mp-30375,ErInAu,-0.7283008994444446
mp-30376,ErInAu2,-0.6991174220833329
mp-1025066,ErInCo4,-0.15273098638889002
mp-3950,ErInCu,-0.4095791405555558
mp-4552,ErInCu2,-0.3210155845833333
mp-1206262,ErInCu4,-0.2845988563888895
mp-31427,ErInNi,-0.5041602005555555
mp-1024983,ErInNi4,-0.3990415013888888
mp-772217,ErInO3,-3.027776863083334
mp-4508,ErInPd,-0.8147487283333342
mp-11371,ErInPd2,-0.8386888145833327
mp-3526,ErInPt,-0.9995312661111112
mp-1184166,ErInPt2,-0.9255283995833326
mp-1080382,ErInPt4,-0.7939432613888885
mp-3141,ErInRh,-0.7509286716666677
mp-977400,ErInRh2,-0.7875126920833342
mp-2713,ErIr,-0.9074312475
mp-1495,ErIr2,-0.8245211983333339
mp-1184162,ErIrO3,-1.7739469837500004
mp-1225723,ErLu(B2Ru)2,-0.6506195977083324
mp-1184202,ErLuCu2,-0.282664958749999
mp-1184169,ErLuHg2,-0.4633011212499994
mp-977551,ErLuMg2,-0.05019178124999968
mp-778151,ErLuO3,-4.014385974749998
mp-1184303,ErLuPd2,-0.9528443137499992
mp-1184345,ErLuRh2,-0.96787982625
mp-1184363,ErLuRu2,-0.4222933937499995
mp-1184360,ErLuZn2,-0.33606662124999964
mp-2228,ErMg,-0.06515423249999985
mp-1213132,ErMg(BO2)5,-3.117989433284313
mp-1185250,ErMg149,-0.021735702033333082
mp-1184227,ErMg2Sc,-0.04090068124999968
mp-862681,ErMg3,-0.04957911125000036
mp-1184255,ErMg5,0.010190527499999824
mp-1079097,ErMgAg,-0.2727597605555556
mp-1184233,ErMgAg2,-0.3221379312499999
mp-1205975,ErMgAu,-0.6766993394444446
mp-1184216,ErMgAu2,-0.8019362862500001
mp-863672,ErMgCd2,-0.29085495625
mp-863674,ErMgHg2,-0.4432421062500001
mp-1205779,ErMgIn,-0.3564411905555558
mp-1079435,ErMgPd,-0.6928636383333332
mp-1184235,ErMgPd2,-0.8307644512500003
mp-1184217,ErMgRh2,-0.75517559625
mp-1232164,ErMgS3,-1.6144017324375006
mp-1232145,ErMgSe3,-1.1058891456562492
mp-862993,ErMgSn,-0.5410077216666664
mp-1205770,ErMgTl,-0.2893428300000001
mp-1184238,ErMgTl2,-0.1964001712500001
mp-977433,ErMgZn2,-0.3249992662500003
mp-22482,ErMn12,-0.0121991557692295
mp-11855,ErMn2,0.040991082500000914
mp-1225633,ErMn2(Fe2Sn3)2,-0.11729540730769265
mp-1213099,ErMn2O3,-2.3899838571949985
mp-1232319,ErMn2O4,-2.658497640274286
mp-19345,ErMn2O5,-2.667204824458749
mp-1206340,ErMn2SiC,-0.5221770557499994
mp-1225598,ErMn3(FeSn2)3,-0.11489695269230865
mp-1213040,ErMn4(CuO4)3,-1.854429910191999
mp-1225626,ErMn4(FeSn3)2,-0.12408853269230764
mp-1225461,ErMnAl,-0.2514574049999989
mp-1190787,ErMnB4,-0.6749530344444435
mp-1225462,ErMnFe,-0.006000061666667261
mp-1225495,ErMnFeO4,-2.4542176044228583
mp-1213032,ErMnFeO5,-2.6014114187137496
mp-1213023,ErMnGa,-0.2773020266666669
mp-20172,ErMnGe,-0.4999676900000007
mp-1077334,ErMnNi4,-0.2980830091666664
mp-19217,ErMnO3,-3.0968138646086656
mp-19738,ErMnSi,-0.5316886283333323
mp-1197296,ErMnSn2,-0.3584278458333329
mp-1194158,ErMoBrO4,-2.5783988221428564
mp-1188769,ErMoC2,-0.2700993387500006
mp-565714,ErMoClO4,-2.7432515554657138
mp-565302,ErMoO4F,-3.0662652794557133
mp-1213494,ErN7O15,-0.6666778490033329
mp-1213215,ErNbO2,-2.481280349375001
mp-5370,ErNbO4,-3.594176439166666
mp-866026,ErNbOs2,-0.2004445812500002
mp-867919,ErNbRu2,-0.35173548624999995
mp-567314,ErNi,-0.4846472650000005
mp-1939,ErNi2,-0.4823157683333328
mp-6098,ErNi2B2C,-0.5177804711805555
mp-1051,ErNi3,-0.4355054445833335
mp-570035,ErNi3Ge2,-0.6172440931944444
mp-853,ErNi5,-0.3353147258333327
mp-31130,ErNi7B3,-0.43094824249999936
mp-1212933,ErNiAs,-1.0419328524999998
mp-27895,ErNiB4,-0.5760842498611124
mp-1078704,ErNiBC,-0.5445674313541664
mp-1206712,ErNiBi,-0.6559008833333332
mp-11723,ErNiC2,-0.3427976481249999
mp-20676,ErNiGe,-0.8085862483333338
mp-582572,ErNiGe2,-0.6882237243749998
mp-1078854,ErNiGe3,-0.5507913219999999
mp-18983,ErNiO3,-2.4235563762500005
mp-1103423,ErNiP,-1.2200857915476189
mp-1213066,ErNiPb,-0.3925822975000012
mp-21272,ErNiSb,-0.9041822733333332
mp-1196661,ErNiSn2,-0.5552081077083333
mp-1212981,ErNiSn4,-0.34057375416666663
mp-1184412,ErNp3,0.6969693571875002
mp-1184211,ErO,-3.1440982731250005
mp-1206338,ErO2,-3.2170249841666667
mp-1025483,ErO3,-2.0953469809375007
mp-1072193,ErOF,-4.307308780813334
mp-1184334,ErOs3,0.3517859125000005
mp-1144,ErP,-1.6102143035714294
mp-1226297,ErP2H3O10,-2.1918989445403563
mp-707202,ErP2H7O10,-1.6214848241062858
mp-707317,ErP4HO12,-2.8131621584550794
mp-4871,ErP5O14,-2.850214639035715
mp-558204,ErPH5CO7,-2.0760885051828573
mp-4006,ErPO4,-3.530545955357141
mp-8919,ErPPd,-1.2739955448809521
mp-1205587,ErPRu2C,-0.6725716981785723
mp-1191596,ErPS,-1.7736220670684535
mp-5036,ErPS4,-1.4569960909821436
mp-1184331,ErPa3,0.1686808687500001
mp-1225447,ErPaO4,-4.216309149999998
mp-1184323,ErPaOs2,-0.24751635374999914
mp-867918,ErPaRu2,-0.4385054112500004
mp-863734,ErPaTc2,-0.18789734125000024
mp-388,ErPb3,-0.2256536687499997
mp-851,ErPd,-0.9343875624999995
mp-1062078,ErPd2,-0.6329285716666663
mp-1206593,ErPd2Pb,-0.7045085312500001
mp-2825,ErPd3,-0.9115838387500004
mp-1189243,ErPd3S4,-1.1938110345312511
mp-1079880,ErPdPb,-0.7116507227777767
mp-1025444,ErPt,-1.3094262424999998
mp-480,ErPt2,-1.1112748049999996
mp-1913,ErPt3,-1.057602253749999
mp-1025030,ErPt5,-0.6524140108333327
mp-18341,ErPtF7,-2.9384377523144445
mp-1006258,ErPu3,0.26037045734374864
mp-1102143,ErRe2,-0.2524979583333315
mp-1205882,ErRe2SiC,-0.4514639147499992
mp-1190444,ErReB4,-0.5998147565277776
mp-2381,ErRh,-0.9502905275000008
mp-1762,ErRh2,-0.7620255816666663
mp-863735,ErRh2Pb,-0.57560416875
mp-568727,ErRh3C,-0.5321353287500002
mp-1805,ErRh5,-0.2800134758333333
mp-1213022,ErRhO3,-2.61123299575
mp-1206911,ErRu3C,-0.24098781975000064
mp-1623,ErS,-2.2835407995312504
mp-1101873,ErS2,-2.1410664877083345
mp-1207375,ErSBr,0.5985125603124999
mp-27616,ErSCl,-2.6040283341075003
mp-10932,ErSF,-3.3657849100841672