task_id,composition,formation_energy_per_atom
mp-1046961,BaMg(AgO2)4,-0.8875796842857139
mp-1046893,BaMg(BiO2)4,-1.8590291571428563
mp-1080511,BaMg(CO2)2,-1.9441787553124987
mp-1205395,BaMg(CO3)2,-2.5757822544999995
mp-1044533,BaMg(CoO2)4,-1.7277975942857142
mp-1044425,BaMg(FeO2)4,-2.1744368064285715
mp-1044540,BaMg(MoO2)4,-1.830341906428572
mp-1046897,BaMg(SbO2)4,-1.90670011
mp-1046957,BaMg(SnO2)4,-2.0859600514285717
mp-1044474,BaMg(WO2)4,-1.5179100864285715
mp-1184337,BaMg149,-0.014667739866666429
mp-1036519,BaMg14AlO16,-2.820057135
mp-1099090,BaMg14Fe,0.207084093125
mp-1036171,BaMg14MnO16,-2.8002986790925
mp-1099078,BaMg14Ni,0.1298954725000001
mp-1935,BaMg2,-0.08201507083333315
mp-694056,BaMg2Al6(Si3O10)3,-3.34516903703125
mp-643264,BaMg2FeH8,-0.4679236157466669
mp-643439,BaMg2H8Os,-0.5046414582466667
mp-643451,BaMg2H8Ru,-0.5115433861633326
mp-1019549,BaMg2Si2O7,-3.3142781596875004
mp-19084,BaMg2V2O8,-2.878354352692308
mp-1228514,BaMg2V6(Cu4O13)2,-1.947668389825581
mp-1037958,BaMg30AlO32,-2.95624436890625
mp-1038613,BaMg30BiO32,-2.838101601796875
mp-1038610,BaMg30CO32,-2.818141085292968
mp-1038611,BaMg30CdO32,-2.9160688213281247
mp-1036978,BaMg30CoO32,-2.925447366875
mp-1038690,BaMg30CrO32,-2.9393602446875
mp-1037251,BaMg30CuO32,-2.9115964024999994
mp-1037485,BaMg30FeO32,-2.9382649001562493
mp-1037843,BaMg30MnO32,-2.944501568452498
mp-1038676,BaMg30NbO32,-2.9082061915625
mp-1036835,BaMg30NiO32,-2.9157771889062496
mp-1039822,BaMg30SiO32,-2.8985952779687487
mp-1095706,BaMg30SnO32,-2.8884678971093747
mp-1036802,BaMg30VO32,-2.9485051915625
mp-1037611,BaMg30ZnO32,-2.9390853521093745
mp-1078462,BaMg4Ge3,-0.3962768993750001
mp-1079433,BaMg4Si3,-0.2743304150000001
mp-1023362,BaMg6Al,0.06122308374999985
mp-1016647,BaMg6B,0.27931692166666644
mp-1016659,BaMg6C,0.3377435589062503
mp-1022221,BaMg6Co,0.19323602500000006
mp-1022107,BaMg6Cu,0.09496992500000023
mp-1022387,BaMg6Fe,0.2549836012499997
mp-1100167,BaMg6Ga,-0.0009915200000001343
mp-1016639,BaMg6Mo,0.26922188625000043
mp-1016650,BaMg6Nb,0.2166598462499998
mp-1022026,BaMg6Ni,0.08385480249999988
mp-1099335,BaMg6Si,0.07990942750000007
mp-1099297,BaMg6Sn,0.00512164687499994
mp-1099296,BaMg6Ti,0.26468410291666666
mp-1016559,BaMg6W,0.3609298899999995
mp-1022622,BaMg6Zn,0.04627127062500014
mp-1022514,BaMg6Zr,0.10478875249999976
mp-1041232,BaMgAgF7,-2.933477009833
mp-1198065,BaMgBO3F,-3.336995065348572
mp-1041248,BaMgBiF7,-3.505566040333
mp-1047866,BaMgCoF7,-3.3287824595830005
mp-1044283,BaMgCr4O8,-2.2010563257142857
mp-1047859,BaMgCrF7,-3.6526305880830003
mp-1041212,BaMgCuF7,-3.108599340333
mp-14568,BaMgF4,-4.010526376626667
mp-1047894,BaMgFeF7,-3.5444628030829985
mp-754515,BaMgGe,-0.5327240749999996
mp-643718,BaMgH4,-0.4786975265799995
mp-1096735,BaMgHg2,0.7405606825000001
mp-1227881,BaMgIn3,-0.3516905399999999
mp-1044300,BaMgMn4O8,-2.1475143874171425
mp-1047862,BaMgMnF7,-3.5367585879290004
mp-1047848,BaMgMoF7,-3.5568809880830004
mp-1047912,BaMgNiF7,-3.1387124943330003
mp-756018,BaMgO2,-2.912154945625
mp-631498,BaMgOs2,1.32301877
mp-18343,BaMgP2O7,-3.132023002094156
mp-1018653,BaMgPb,0.0004243099999999463
mp-1041269,BaMgSbF7,-3.4686331628329996
mp-9934,BaMgSi,-0.38461021333333295
mp-560186,BaMgSiO4,-3.31855636
mp-1018654,BaMgSn,-0.04743490500000025
mp-1041291,BaMgSnF7,-3.4240050390830006
mp-865532,BaMgTe2O7,-2.244483490340909
mp-1046916,BaMgTi4O8,-3.091622037619049
mp-1041239,BaMgTiF7,-3.867133195249667
mp-1093902,BaMgTl2,1.1677681275
mp-1228071,BaMgV2CuO8,-2.49002900423077
mp-1227934,BaMgV2ZnO8,-2.6520538375000005
mp-1044203,BaMgV4O8,-2.527495461428571
mp-1047850,BaMgVF7,-3.712585766083001
mp-1047900,BaMgWF7,-3.4350933043330003
mp-1194459,BaMn28,0.20232211034483047
mp-1228499,BaMn2Fe4O11,-2.032060716426113
mp-1193263,BaMn2FeSi2O9,-2.7233396695446666
mp-540612,BaMn2O3,-2.284973247611667
mp-1095090,BaMn2O5,-2.068626039771249
mp-31918,BaMn2O8,-1.5760472638109102
mp-1103900,BaMn2P2O9,-2.672015885532552
mp-1228364,BaMn2Ru4O11,-1.7624048039261109
mp-1196057,BaMn2Si2O7,-2.9519596083891657
mp-1046464,BaMn2TlO6,-1.6643125569419994
mp-19507,BaMn2V2O8,-2.5646828926476912
mp-1204296,BaMn3(PO4)3,-2.738157782858345
mp-1228385,BaMn3Fe3O11,-2.0600594928683336
mp-1048458,BaMn4AlO7,-2.3031168863530764
mp-767732,BaMn4O8,-2.151340625936409
mp-1044381,BaMn4ZnO8,-1.9454345356314289
mp-1215056,BaMn5(SO4)6,-2.287848026458565
mp-1228224,BaMn5O11,-1.6792776716794129
mp-1228093,BaMn6O12,-2.0935676539873675
mp-1228782,BaMn8O16,-2.0463806627071994
mp-1194843,BaMn9V6(HO13)2,-2.3111717257586366
mp-1196033,BaMn9V6O26,-2.3207450072890485
mp-1042474,BaMnAlCuO5,-2.0937302163566662
mp-1214444,BaMnAlF7,-3.736487334678999
mp-1079799,BaMnBi2,-0.2897772712500002
mp-19054,BaMnCO3F2,-2.812627136355
mp-556850,BaMnF4,-3.580796668453333
mp-559999,BaMnF5,-3.430114394558572
mp-554912,BaMnFeF7,-3.2924937476790017
mp-622203,BaMnGaF7,-3.3711035514289995
mp-20639,BaMnGe,-0.16588160999999954
mp-1029775,BaMnN2,-0.8564851286899993
mp-1199857,BaMnO2,-2.3987530607087497
mp-1189956,BaMnOF5,-2.742469296020001
mp-1195656,BaMnP(O2F)2,-3.0530900192203183
mp-19194,BaMnP2O7,-2.926083095363247
mp-1194882,BaMnPClO4F,-2.8584358238947627
mp-8347,BaMnS2,-1.669037448281251
mp-29206,BaMnSb2,-0.4480915187500001
mp-1078949,BaMnSbF,-1.825096909287501
mp-672226,BaMnSi2,-0.14802835875000042
mp-540651,BaMnSnS4,-1.3685568792857146
mp-19174,BaMnV2(AgO4)2,-2.1374024236400007
mp-1214547,BaMnVF7,-3.404986005679
mp-1047907,BaMnZnF7,-3.174094508929
mp-567167,BaMo(PO4)2,-2.8553928361904757
mp-555623,BaMo2(PO4)3,-2.716047258412699
mp-567053,BaMo2(PO4)4,-2.656431637981365
mp-615550,BaMo2(PO6)2,-2.5659649846638652
mp-1199746,BaMo2C4O17,-1.2656853291493049
mp-640584,BaMo2P3O14,-2.6235504724464285
mp-567328,BaMo2Se2O11,-1.9922316300585927
mp-504987,BaMo3O10,-2.31123800375
mp-566404,BaMo4(PO8)2,-2.3989614006211184
mp-1182828,BaMo4O15,-1.6367335453750005
mp-1048520,BaMo4O7,-1.557468917395834
mp-1201115,BaMo6I2O25,-1.783245728125001
mp-1047957,BaMoF7,-3.1986098348144445
mp-1203873,BaMoI4O15,-1.2251212824404765
mp-1214454,BaMoO2,-1.936554911875
mp-19276,BaMoO4,-2.7240099083333327
mp-1096841,BaMoP2,-0.4898926548214284
mp-566189,BaMoSeO6,-2.2093320151215283
mp-1057758,BaN,-0.1321275811899998
mp-1001,BaN2,-0.7648113232533321
mp-569812,BaN3Cl,-1.2535216550799997
mp-1707,BaN6,-0.5099432020399998
mp-1182281,BaN6O,-0.2515020931912497
mp-17864,BaNa(B3O5)3,-2.949836262451924
mp-1227868,BaNa(FeAs)4,-0.3913034424999999
mp-13755,BaNa(PO3)3,-2.8884102837627554
mp-11820,BaNa2,-0.020320025833333588
mp-1215058,BaNa2(Ge4O9)2,-2.2536374680747127
mp-556806,BaNa2(SiO3)2,-3.0218139206818178
mp-6875,BaNa2Al4(SiO4)4,-3.3156830279629617
mp-1096333,BaNa2Ca,1.013571180625
mp-1227924,BaNa2Fe4F12,-2.9918946823305266
mp-861906,BaNa2Mg(PO4)2,-2.9790508953061225
mp-559586,BaNa2Nd2Si4CO15,-3.1992443964999984
mp-755391,BaNa2O2,-1.9448061945
mp-1183312,BaNa2Pb,-0.2430243950000004
mp-1183338,BaNa2Sn,-0.2839221737500002
mp-1097658,BaNa2Sr,0.9617076975
mp-1227953,BaNa2Sr6Al6(OF16)2,-3.833762829807757
mp-561352,BaNa2Ti2(Si2O7)2,-3.2373417706884062
mp-505125,BaNa2V2CuO8,-2.3514722010714286
mp-1214424,BaNa3(PO4)2,-2.7013564263775507
mp-771331,BaNa3PCO7,-2.571061559972528
mp-653631,BaNa4Cu3F12,-2.6585096832140005
mp-756084,BaNa4O3,-1.74316642671875
mp-1214578,BaNa4Ti2(Si2O5)6,-3.1327670926700684
mp-1228057,BaNa4Ti2Si10(BO15)2,-3.1759714451870744
mp-693753,BaNa5Ca7P6(O8F)3,-3.2254104903027634
mp-694942,BaNa5LiCo5F18,-2.8161859512140004
mp-755322,BaNa6O4,-1.6871526468181814
mp-1201530,BaNa6Th(CO4)6,-1.7335354516447363
mp-15515,BaNaAlF6,-3.8507385538488896
mp-1199471,BaNaAlMo6(H13O17)2,-1.784711889226376
mp-1093620,BaNaAu2,0.43782775125
mp-1019554,BaNaB5O9,-2.9524537046614574
mp-6660,BaNaBO3,-2.8687488317361116
mp-31235,BaNaBi,-0.7627452522222222
mp-542264,BaNaCe2C4O12F,-2.7060003407709523
mp-556890,BaNaCr2F9,-3.3539531210161537
mp-1214564,BaNaCrF6,-3.472550663293333
mp-1147772,BaNaCuBrO2,-1.7865668679166669
mp-1232325,BaNaCuClO2,-1.9442954192933317
mp-1019735,BaNaEu(SiO3)3,-3.226888000083334
mp-554149,BaNaFe2F9,-3.1834553714007683
mp-735783,BaNaFe4P6H3O25,-2.3528364311241794
mp-1214635,BaNaFeF6,-3.3510214737099995
mp-1214538,BaNaGaF6,-3.4432252539877783
mp-862693,BaNaH3Pd,-0.4859935626433328
mp-1182061,BaNaH6Ir,-0.6109260863022222
mp-867147,BaNaHg2,-0.38920420625
mp-677179,BaNaIn2(PO4)3,-2.7003446259523822
mp-1019555,BaNaLi3(BO2)6,-2.8593784986956523
mp-14353,BaNaNd(GeO3)3,-2.672788724083333
mp-13791,BaNaNd(SiO3)3,-3.3572895070833337
mp-559384,BaNaNdSi2O7,-3.3679743443750003
mp-9732,BaNaP,-0.7734181034920641
mp-695982,BaNaP3(HO2)6,-2.2789089133977645
mp-866302,BaNaP3H3(NO2)3,-1.9926214433487401
mp-1227883,BaNaPO4,-3.0233550495918364
mp-1199379,BaNaPSO12,-1.2090239522628359
mp-961774,BaNaSb,-0.63845556
mp-1182298,BaNaSc(BO3)2,-3.1732655605303037
mp-866298,BaNaScSi2O7,-3.3562526582291667
mp-962067,BaNaSn,-0.1807305433333335
mp-1227913,BaNaSr3(SbO4)3,-2.5650218782500005
mp-1215092,BaNaTiF6,-3.7036358195896297
mp-1227835,BaNaTiNbO6,-3.155226937916667
mp-1183318,BaNaTl2,-0.26210601375
mp-1214563,BaNaVF6,-3.535495498571112
mp-1227892,BaNaVS4,-1.6869437458928576
mp-1182342,BaNaY(BO3)2,-3.1716525732575764
mp-1214445,BaNaY2(PO4)2,-2.70673448137755
mp-561234,BaNaZr2F11,-3.9860638275393336
mp-560732,BaNaZrF7,-3.9500069318330007
mp-555764,BaNb10SiO19,-2.8843765086693547
mp-1021950,BaNb2(FeO3)4,-2.1608405763157896
mp-555867,BaNb2Bi2O9,-2.6629807440178572
mp-705895,BaNb2Fe2(PO4)6,-2.804776322653061
mp-1022731,BaNb2Fe2O9,-2.660567285446429
mp-28150,BaNb2O6,-3.231303189722221
mp-1188841,BaNb2V2O11,-2.8812428071093743
mp-1192672,BaNb2Xe5F22,-2.212071829872667
mp-776461,BaNb3NO7,-2.8564236684275013
mp-1096881,BaNb4(FeO7)2,-2.765264301785715
mp-1228636,BaNb4Bi4PbO18,-2.5097439397321435
mp-1120749,BaNb4O11,-3.1286937636718744
mp-1227948,BaNb4O14,-2.3289247993421056
mp-761128,BaNb5O8,-2.807446427857144
mp-1228615,BaNb6Bi6Pb2O27,-2.4368670129464296
mp-1214450,BaNb6HO16,-2.900995724109167
mp-1191444,BaNb6O17,-2.905023719635416
mp-555620,BaNb7(P2O11)3,-2.9892116340235573
mp-505078,BaNb7O9,-2.5882741100735283
mp-1205468,BaNb8O14,-2.8756551496195657
mp-1214520,BaNbI5O16,-1.4259535573913042
mp-1227828,BaNbNO2,-2.4608107589760007
mp-3020,BaNbO3,-3.1893749787500005
mp-35143,BaNbS3,-1.8437311554375
mp-631491,BaNbTc2,0.9630543825000002
mp-560794,BaNbTePO8,-2.758745569032737
mp-984827,BaNd,0.2331831212500001
mp-1079144,BaNd(CoO3)2,-2.2392767045
mp-1227836,BaNd(FeO3)2,-2.5105170935000003
mp-1195589,BaNd(SnS3)2,-1.5766376839374998
mp-622521,BaNd2(MoO4)4,-2.693236450869565
mp-17836,BaNd2BeO5,-3.451713717638889
mp-6080,BaNd2CoS5,-2.0222716144791684
mp-1214581,BaNd2Cu(MoO4)4,-2.5390963581249992
mp-6704,BaNd2CuO5,-2.975983110694445
mp-16533,BaNd2FeS5,-2.057293206145834
mp-1197371,BaNd2In2O7,-2.9070640152430562
mp-16456,BaNd2MnS5,-2.1296641261458342
mp-2892,BaNd2O4,-3.529223006785714
mp-8514,BaNd2PdO5,-2.9871471323611107
mp-556525,BaNd2PtO5,-2.988530694583332
mp-6285,BaNd2Ti3O10,-3.673205697968749
mp-6468,BaNd2ZnO5,-3.1531484345833336
mp-16455,BaNd2ZnS5,-2.155535026701389
mp-1227932,BaNd3(CoO3)4,-2.413559540375
mp-1228268,BaNd4(CoO3)5,-2.44070409055
mp-1095616,BaNdAgS3,-1.9525544499479168
mp-24853,BaNdCo2O5,-2.3768827048611105
mp-10350,BaNdCuBO5,-2.8535679889351844
mp-1214402,BaNdCuTe3,-1.2503514570833332
mp-1182187,BaNdFe2O5,-2.645457823750001
mp-1227838,BaNdFeCoO6,-2.4132662225
mp-541281,BaNdGaO4,-3.0905017946428566
mp-1192583,BaNdInO4,-2.9192158479761905
mp-561634,BaNdMn2O5,-2.776108857296666
mp-1227840,BaNdMnCoO5,-2.5869390060788904
mp-1227874,BaNdMnCoO6,-2.479571392096
mp-41829,BaNdNiSbO6,-2.5068248165
mp-754307,BaNdO3,-3.00974022825
mp-19388,BaNi2(AsO4)2,-1.875461105384615
mp-18909,BaNi2(PO4)2,-2.45923813032967
mp-1048486,BaNi4O7,-0.8807726228124994
mp-540991,BaNi9As5,-0.4574623683333329
mp-3202,BaNi9P5,-0.6669076393809529
mp-1147570,BaNiC4Br,0.21762992785714325
mp-1096852,BaNiCl3,-1.781284624956001
mp-555321,BaNiF4,-3.1611813374600004
mp-613910,BaNiF6,-2.5997887408925004
mp-1147557,BaNiIO6,-1.3745730274999994
mp-21653,BaNiN,-0.5886320741266661
mp-18943,BaNiO2,-1.8017898318750003
mp-19241,BaNiO3,-1.7417981347500002
mp-1214404,BaNiP2O7,-2.6963714020941563
mp-7486,BaNiS2,-1.5229609720312505
mp-11879,BaNiSn3,-0.4671718830000003
mp-1190517,BaNp(HO2)3,-2.501548319282728
mp-1191675,BaNp(PO4)2,-3.189151969002977
mp-8558,BaNpO3,-3.3855601025
mp-1214391,BaNpO4,-3.4674185847916674
mp-510571,BaNpPH2O7,-2.819006193490239
mp-1182404,BaO10,-0.5466449034090911
mp-1105,BaO2,-2.1684953008333334
mp-1182327,BaO4,-1.1908476934999996
mp-1214539,BaO5,-0.8039303843749993
mp-1182169,BaO6,-0.8805501396428578
mp-1214372,BaOsO2,-1.3454501374999994
mp-781625,BaOsO3,-2.056707249749999
mp-1182621,BaOsO9,-0.6810042255681814
mp-28035,BaP10,-0.259630995584415
mp-1105095,BaP2,-0.8032512597619051
mp-1214602,BaP2(HO)2,-1.3635283705751016
mp-642646,BaP2(HO)4,-1.8141548830696104
mp-706400,BaP2(HO2)4,-2.3784527399177136
mp-1214662,BaP2(HO3)2,-2.041637040214459
mp-707120,BaP2(HO4)2,-2.2985545218481316
mp-581294,BaP2(XeF5)4,-2.1760367603920634
mp-1214387,BaP2O5,-2.4739067350669632
mp-505234,BaP2PbO7,-2.844088871866883
mp-1214414,BaP2PdO7,-2.625312040048702
mp-1182371,BaP2S2O9,-1.4078102591900514
mp-7808,BaP3,-0.6657922103571429
mp-1236856,BaP3HNO9,-2.026197019411905
mp-1182641,BaP3NO10,-2.0641512897539047
mp-1202402,BaP3NO11,-2.383270111878661
mp-28373,BaP3Pt2,-0.9031809606547618
mp-578781,BaP4(W2O7)8,-2.3179207342671617
mp-779518,BaP4O11,-2.79101068873884
mp-1204631,BaP6H16(N2O9)2,-1.867314489951047
mp-30275,BaP8,-0.3112913524603182
mp-985439,BaPAu,-0.8766120123809523
mp-698163,BaPHO4,-2.841870953204217
mp-9078,BaPIr,-0.9057364223809532
mp-1197491,BaPO3F,-3.301895456805476
mp-1204995,BaPO4,-2.841328813273811
mp-21236,BaPPt,-1.0834641357142858
mp-11006,BaPS3,-1.5734865818660717
mp-11008,BaPSe3,-1.0123420680848212
mp-8557,BaPaO3,-3.5806607147500005
mp-20136,BaPb,-0.5822825974999999
mp-1227878,BaPb(SO4)2,-2.428932645260416
mp-1228616,BaPb2(SO4)3,-2.3000186088715284
mp-554116,BaPb2BrF5,-2.901114246772222
mp-560874,BaPb2C2(O3F)2,-2.363482479029232
mp-554245,BaPb2IF5,-2.853073510661112
mp-21446,BaPb3,-0.36426436833333337
mp-1228119,BaPb3(NO3)8,-1.2921554724733342
mp-1214389,BaPb3O4,-1.8559630124999995
mp-19799,BaPbF6,-3.0516737171425
mp-20461,BaPbO3,-2.12237330175
mp-1008505,BaPd,-0.5397468850000005
mp-1205352,BaPd(SeO3)2,-1.71258352146875
mp-1687,BaPd2,-0.5763055766666678
mp-2606,BaPd5,-0.3339723183333341
mp-30102,BaPdCl4,-1.8930762363400009
mp-12623,BaPdF4,-2.8673824541266666
mp-1178510,BaPdO3,-1.7044003347500003
mp-1182093,BaPdO5,-1.04340933375
mp-4009,BaPdS2,-1.5518796032812512
mp-1183326,BaPm3,0.19016494437499976
mp-24856,BaPr(CoO3)2,-2.24405197775
mp-1194578,BaPr(SnS3)2,-1.5764566374374993
mp-16451,BaPr2CoS5,-2.01988482170139
mp-20212,BaPr2CuO5,-2.9490086645833333
mp-10912,BaPr2FeS5,-2.0555150355902785
mp-1203636,BaPr2In2O7,-2.8934850060763893
mp-1227914,BaPr2Mn3O9,-2.7768082036086668
mp-16124,BaPr2MnS5,-2.1285722800347227
mp-17412,BaPr2O4,-3.4909067817857147
mp-9759,BaPr2PdO5,-2.9628332795833328
mp-1195909,BaPr2Sc2O7,-3.7564571534375006
mp-557074,BaPr2Ti3O10,-3.6601425710937487
mp-16454,BaPr2ZnS5,-2.1542929800347235
mp-1227893,BaPr3(NiO4)2,-2.685171807142858
mp-1227911,BaPrCu2O5,-2.1806426914351853
mp-1214381,BaPrCuTe3,-1.2478810083333336
mp-1206136,BaPrFeCuO5,-2.4851529984722225
mp-557036,BaPrMn2O5,-2.7647646720188885
mp-1227832,BaPrNbCoO6,-2.89933838475
mp-1227898,BaPrTaCoO6,-3.10151820125
mp-31498,BaPt,-0.7635099624999997
mp-747,BaPt2,-0.7271848250000001
mp-558588,BaPt2S3,-1.3152316221701392
mp-1214338,BaPt3O4,-1.23757749375
mp-1183290,BaPtO3,-1.7353688247500003
mp-1105887,BaPtO7,-0.6274203370833331
mp-505025,BaPuO3,-3.4273029811250004
mp-740752,BaRe2(H2O3)4,-1.928843080933044
mp-1215113,BaRe2C3N6O11,-0.9759609488817378
mp-722880,BaRe2H12C3N6O11,-1.3446076848634294
mp-695984,BaRe2H2O9,-2.2944343450707145
mp-1214641,BaRe2O9,-2.1337667473958333
mp-631703,BaRe2Sn,1.2999683625000005
mp-1183358,BaRe3,1.4731641218750011
mp-1193342,BaRe3S4O7,-0.8780822488333323
mp-1194628,BaRe3Se4O7,-0.799489483375
mp-989637,BaReN3,-0.7119365039279998
mp-1183298,BaReO3,-2.377720188250001
mp-568430,BaRh2,-0.0653833816666669
mp-7660,BaRhF6,-2.8077036658925003
mp-7685,BaRhO3,-2.0113172332500007
mp-1194442,BaRu2Xe5F22,-1.6914929115393336
mp-5773,BaRuO3,-2.199653336416667
mp-1201605,BaRuO5,-1.804807076130952
mp-684,BaS2,-1.8601741960416671
mp-239,BaS3,-1.555611658046875
mp-1182185,BaS4O,-1.08070891875
mp-1019557,BaS4O13,-2.1678928398611106
mp-1194419,BaS5O8,-1.3992400925223214
mp-696582,BaSO2,-2.2988225791406256
mp-768307,BaSO3,-2.7460751475625003
mp-3164,BaSO4,-2.83409122234375
mp-2196,BaSb2,-0.7151015483333336
mp-554765,BaSb2F12,-3.0061667196186663
mp-9768,BaSb2Pd,-0.8044889000000001
mp-556539,BaSb2Xe5F22,-1.9375147888726667
mp-6950,BaSb3,-0.5436486587500005
mp-1048167,BaSb4O7,-1.5587327298958336
mp-568895,BaSbAu,-0.9254832549999996
mp-545500,BaSbClO2,-2.506635041152
mp-18099,BaSbF5,-3.3936745051357144
mp-1041341,BaSbF7,-3.1849961300922223
mp-8606,BaSbPt,-0.9435567583333336
mp-558946,BaSbSe2F,-1.8081178016755
mp-18291,BaSbTe3,-0.7837157459999999
mp-3564,BaSc2O4,-3.7036104047619056
mp-1194834,BaSc2Si3O10,-3.56433998234375
mp-554796,BaSc3AgS6,-2.0996428730113648
mp-1214365,BaSc6Ni4O15,-2.7942309822596147
mp-1228045,BaSc8Ni2O15,-3.425494205144232
mp-1182182,BaScCu3Se4,-0.8207944571527774
mp-1103664,BaScCuS3,-1.9555888786979176
mp-631492,BaScIr,0.9163036633333341
mp-1227813,BaScO2F,-3.7564501197380014
mp-1183289,BaScO3,-3.22173230875
mp-1192501,BaScZn3GaO7,-2.534205941826923
mp-1202467,BaSe(SO2)4,-1.3447916401674105
mp-7547,BaSe2,-1.3889516957291663
mp-28536,BaSe2O5,-1.9305639604296871
mp-7548,BaSe3,-1.0374887664453132
mp-6989,BaSeO3,-2.3304740344687502
mp-12010,BaSeO4,-2.1698194455989577
mp-1236963,BaSi(HO2)2,-2.618167616217499
mp-1201400,BaSi(S2O7)3,-2.183539773426725
mp-1214345,BaSi12Pt5,-0.5002334966666666
mp-555387,BaSi2(BO4)2,-3.2138467983333325
mp-721586,BaSi2(H3O4)2,-2.310028782748235
mp-6764,BaSi2(NO)2,-2.35500756568
mp-30185,BaSi23,0.03992341979166625
mp-3031,BaSi2O5,-3.37663041359375
mp-1070137,BaSi3Pd,-0.4762341679999999
mp-1069809,BaSi3Pt,-0.5963619280000003
mp-18502,BaSi3SnO9,-3.1092779461607143
mp-9478,BaSi4O9,-3.3051871818750014
mp-1480,BaSi6,-0.0826457128571434
mp-557414,BaSi6N8O,-1.5697338868931243
mp-29703,BaSi7N10,-1.3552704610444442
mp-1190822,BaSi9Rh2,-0.3797868695833333
mp-1227729,BaSiAu,-0.5768186400000003
mp-631544,BaSiB,1.1633527911111112
mp-1191774,BaSiC,0.17789418333333393
mp-5588,BaSiF6,-3.8608336421425005
mp-1227766,BaSiGe,-0.3956643300000001
mp-3777,BaSiN2,-1.31699129119
mp-776084,BaSiO3,-3.418936358750001
mp-1191804,BaSiO4,-2.5544409420833323
mp-722278,BaSiP4(HO7)2,-2.7058786124232466
mp-1102609,BaSiPd,-0.7244903916666665
mp-1101912,BaSiPt,-0.9490660716666662
mp-631504,BaSiTc2,1.0029070375
mp-1188886,BaSm(CoO3)2,-2.245951136
mp-1214473,BaSm2(CoO3)2,-2.6648822934090917
mp-1214393,BaSm2(MoO4)4,-2.6995532726086946
mp-19248,BaSm2CoO5,-3.1052918856944447
mp-21568,BaSm2CuO5,-3.0163171048611117
mp-16534,BaSm2FeS5,-2.0544125017013894
mp-17960,BaSm2O4,-3.5906715175
mp-8515,BaSm2PdO5,-3.0226373684722216
mp-9757,BaSm2PtO5,-3.022919754583332
mp-1200892,BaSm2Sc2O7,-3.792607864687501
mp-1197030,BaSm2Ti3O10,-3.673223174843749
mp-6452,BaSm2ZnO5,-3.2007965040277786
mp-1183309,BaSm3,0.2102582481249997
mp-39866,BaSm4Si3SeO12,-3.4906867915997024
mp-1227863,BaSm5Al3Si9N20O,-1.5891917687525636
mp-15073,BaSmC2O6F,-2.9221219630627275
mp-1227751,BaSmCoCuO6,-2.160906793
mp-1214336,BaSmCuBO5,-2.8670330017129624
mp-1214324,BaSmFeCuO5,-2.5192952465277774
mp-872,BaSn,-0.6983831324999996
mp-540635,BaSn(GeO3)3,-2.3680203590178572
mp-1195130,BaSn(HO)6,-1.840548529408571
mp-567510,BaSn2,-0.5805048433333333
mp-696946,BaSn2(HO2)2,-1.9512648296933333
mp-1227803,BaSn2Bi,-0.458612043125
mp-27802,BaSn2S3,-1.3432492248090284
mp-1068048,BaSn3Au,-0.5029208150000002
mp-11269,BaSn3Pd,-0.6384766190000001
mp-30433,BaSn3Pt,-0.6757908950000001
mp-1048197,BaSn4O7,-1.750106042395834
mp-571353,BaSn5,-0.30069895749999986
mp-1103397,BaSnF4,-3.397499033293333
mp-8290,BaSnF6,-3.4183721427675002