task_id,composition,formation_energy_per_atom
mp-510534,CaCr2Cu3(SbO6)2,-1.8898692008750004
mvc-11949,CaCr2F10,-3.0300257938
mvc-14383,CaCr2F12,-2.7401916447853334
mp-558881,CaCr2O4,-2.692576427857144
mvc-11982,CaCr2O5,-2.328576903593751
mvc-13364,CaCr2O6,-2.0077010161111115
mp-1042375,CaCr2O7,-2.025742898625
mp-1040889,CaCr2P2O9,-2.822316437002552
mp-1040822,CaCr3(P2O7)2,-2.6853004940259737
mp-1047869,CaCr3P3O13,-2.7358604527589288
mp-1043224,CaCr4(CuO4)3,-1.8925995991250004
mp-1043430,CaCr4O6,-2.317542965
mvc-10962,CaCr4O8,-2.3458093474999995
mp-1041451,CaCr4O9,-2.082782050267857
mp-1042764,CaCrAs2O7,-2.194277457613636
mvc-5561,CaCrAsO5,-2.4006169695312503
mp-1201096,CaCrBi12(Mo2O17)2,-1.9242024097115384
mvc-3299,CaCrF4,-3.5525372528766663
mp-556748,CaCrF5,-3.5707179119214283
mp-557519,CaCrF6,-3.30510730808
mvc-8343,CaCrNiP2O9,-2.5515439686096935
mp-1214059,CaCrO2,-2.59901740625
mp-24909,CaCrO3,-2.6220497187499987
mp-19215,CaCrO4,-2.454531540416666
mp-1204789,CaCrO6,-1.2417393914062496
mp-19134,CaCrP2O7,-2.886157671866883
mp-585949,CaCu,-0.1477391505
mp-6537,CaCu(GeO3)2,-2.167210669500001
mp-1045680,CaCu(PO3)4,-2.6137185383928565
mp-6189,CaCu(Si2O5)2,-3.020169036093749
mp-1041594,CaCu(SiO3)2,-2.815660556
mp-1196322,CaCu10Te4(As2O17)2,-1.208437909056604
mvc-11862,CaCu2(As2O7)2,-1.6132180083333332
mp-1040991,CaCu2(BiO4)2,-1.4101645257692303
mvc-12739,CaCu2(GeO3)4,-1.8633231164473687
mp-1041448,CaCu2(MoO4)2,-1.9714816201923069
mp-1047810,CaCu2(NiO4)2,-0.9227862728846152
mvc-14848,CaCu2(P2O7)2,-2.332981278979592
mp-1041041,CaCu2(SbO4)2,-1.7034581261538462
mvc-12787,CaCu2(Si2O5)4,-2.8551178512096764
mp-1041279,CaCu2(SnO4)2,-1.6662420325000002
mp-1041089,CaCu2(TeO4)2,-1.5487774869230764
mp-1041453,CaCu2(WO4)2,-1.9531642969230758
mvc-13028,CaCu2F8,-2.3814482170018185
mp-7466,CaCu2O3,-1.7320774552083336
mp-1042724,CaCu3(BiO3)4,-1.4778904761250005
mp-17599,CaCu3(GeO3)4,-1.8353284386249995
mp-1105220,CaCu3(IrO3)4,-1.313592390625
mp-1043274,CaCu3(MoO3)4,-1.9064695826249989
mp-1043133,CaCu3(NiO3)4,-1.0446309266250005
mp-1047107,CaCu3(P2O7)2,-2.306695645162338
mp-1106325,CaCu3(PtO3)4,-1.1548218396250007
mp-6036,CaCu3(RuO3)4,-1.482289569625
mp-1042703,CaCu3(SbO3)4,-1.6766595371250006
mp-18190,CaCu3(SnO3)4,-1.8485682431250008
mp-1043310,CaCu3(WO3)4,-1.8278323866250008
mp-1147653,CaCu3O4,-1.5724490234374997
mvc-10304,CaCu3P3O13,-2.082395366508929
mp-1205020,CaCu4As4(HO13)2,-0.6767644126281088
mp-571034,CaCu9Sn4,-0.11609146517857127
mp-4120,CaCuAs,-0.8136373241666668
mp-6203,CaCuAs2O7,-1.9560061396590915
mp-510729,CaCuAsHO5,-1.9707182063744442
mp-1197546,CaCuAsO5,-1.94463420203125
mp-22941,CaCuBi,-0.4636979041666673
mp-1041559,CaCuBi2O7,-1.5057492323863633
mp-1044081,CaCuBiO5,-1.6552488432812504
mp-12266,CaCuF4,-3.0495460695433327
mvc-15792,CaCuF5,-2.7785383726357145
mp-21779,CaCuGe,-0.4761926438888888
mp-23686,CaCuH4(CO2)4,-1.4853850237211101
mp-1042213,CaCuMo2O7,-2.088809291628789
mp-4826,CaCuO2,-2.1358036775
mp-1099873,CaCuO3,-1.7100317202500008
mp-8432,CaCuP,-0.8627761248809532
mp-14694,CaCuP2O7,-2.6443094866396097
mp-1096857,CaCuS2,-1.3189399164062503
mp-5910,CaCuSb,-0.6725401908333334
mp-1041622,CaCuSb2O7,-1.86144121875
mp-703515,CaCuSiH2O5,-2.308490485598999
mp-570879,CaCuSn,-0.4560076975000002
mp-1041880,CaCuW2O7,-2.035965220265151
mp-1227805,CaDy2(GeO3)4,-2.8474373869736844
mp-1183497,CaDy3,0.13072489562499978
mp-1227230,CaDyAl4,-0.4006226912499997
mp-866228,CaDyHg2,-0.525715744375
mp-706325,CaDyMnSnO6,-2.8327209405959985
mp-866216,CaDyRh2,-0.615867621875001
mp-1183478,CaDyZn2,-0.2992050543750002
mp-720985,CaEr15Si8Se11ClO28,-3.128310869145176
mp-1227561,CaEr2(GeO3)4,-2.854862918026316
mp-1227226,CaErAl4,-0.3924173820833333
mp-865169,CaErRh2,-0.6397360881250007
mp-561024,CaEu2(CuO3)2,-2.375076449090909
mp-1229313,CaEu2(GeO3)4,-2.596699245131579
mp-1227918,CaEu2B2O7,-3.1517565046875
mp-1227637,CaEu2BeO5,-3.1400215270833325
mp-756244,CaEu2O3,-3.150847622708333
mp-1205634,CaEu2WO6,-2.9196247794999985
mp-1183604,CaEu3,0.03970153312499925
mp-1178520,CaEu4O5,-3.1520505053750014
mp-1183508,CaEuCd2,-0.3438179431249999
mp-1183606,CaEuGa2,-0.4463462781249996
mp-1227207,CaEuH6Ru,-0.681191515468889
mp-1183530,CaEuHg2,-0.5405518381249994
mp-865553,CaEuIn2,-0.4643382547916666
mp-1183637,CaEuMg2,-0.043969568124999636
mp-755389,CaEuO2,-3.1849646562500014
mp-1227261,CaEuS2,-2.4646363301562504
mp-1227177,CaEuSi4,-0.4337338554166668
mp-1183609,CaEuTl2,-0.440517855625
mp-1183574,CaEuZn2,-0.2385284031249997
mp-1183545,CaF,-2.818021469345
mp-1183589,CaF3,-3.0366646552675003
mp-1043513,CaFe(GeO3)2,-2.3980585490000004
mp-1214052,CaFe(MoO3)2,-2.1569486520000014
mp-1045812,CaFe(PO3)4,-2.7722728689484133
mp-1043643,CaFe(Si2O5)2,-3.1379207300000003
mp-18890,CaFe(SiO3)2,-3.067239225
mp-1196503,CaFe2(AsO5)2,-1.8536288401666683
mp-1041467,CaFe2(CuO4)2,-1.4277973511538475
mp-1040917,CaFe2(PO4)2,-2.707771216675825
mp-1214178,CaFe2(PO4)3,-2.577074820496032
mp-1044202,CaFe2(PO5)2,-2.389030679619048
mp-1117357,CaFe2(SiO3)4,-2.9442130759210534
mp-1227229,CaFe2BiO6,-1.5766608170000012
mvc-7721,CaFe2CoO7,-1.6600581936363634
mp-1194983,CaFe2Cu3(SbO6)2,-1.763053162375001
mp-1228492,CaFe2CuO5,-1.957950894861112
mvc-10920,CaFe2F10,-2.716985102646154
mvc-12054,CaFe2O5,-1.9571122948437496
mp-1040941,CaFe2P2O9,-2.657314004681123
mp-744240,CaFe2P3HO12,-2.573911253949925
mvc-14773,CaFe2S5,-0.9555912322265644
mp-698695,CaFe2Sb2(PO4)6,-2.5406036697244896
mp-1040883,CaFe3(P2O7)2,-2.659215159253247
mp-1227384,CaFe3(SiO3)4,-2.8610398431249986
mp-1044389,CaFe3O7,-1.7022170567045458
mp-1197792,CaFe3P3H2O13,-2.460003708916753
mp-565830,CaFe3P3O13,-2.591551627258929
mp-721924,CaFe3Si2HO9,-2.5765657929606265
mp-1197428,CaFe3Si2O9,-2.6321398347500007
mp-1043124,CaFe4(CuO4)3,-1.6210735731249997
mp-22640,CaFe4As3,-0.3473056153125009
mp-1048015,CaFe4O9,-1.5965893663392856
mp-1105435,CaFe5As3,-0.2945677002777789
mp-504565,CaFe5O7,-1.998168296634616
mp-1201500,CaFe5P5O22,-2.3852409016883125
mp-1042824,CaFeAs2O7,-2.15628433125
mp-1080591,CaFeAsF,-1.7064210596724996
mvc-5813,CaFeAsO5,-2.2809427120312504
mp-1199046,CaFeBP2(HO5)2,-2.5792693375407274
mp-558942,CaFeClO2,-2.477398765651999
mvc-14231,CaFeF4,-3.43763805371
mvc-14316,CaFeF5,-3.420191722635714
mvc-15840,CaFeF6,-2.9976644568299995
mvc-11007,CaFeMoO6,-2.1392029205555567
mp-1043130,CaFeNiP2O9,-2.4380565711096938
mp-1048244,CaFeO2,-2.4778195737500006
mp-19115,CaFeO3,-2.34046201325
mvc-5578,CaFeP2O7,-2.8504416255032465
mvc-13123,CaFeReO6,-2.3294271663888892
mp-1078415,CaFeSO,-1.887963186953125
mp-566256,CaFeSbAs2O7,-2.0964644933333325
mp-1227116,CaFeSi2Rh,-0.7069183235000004
mp-1046733,CaFeSiO5,-2.7008212029687497
mp-743601,CaFeSn(PO4)3,-2.696166504940477
mvc-10916,CaFeWO6,-2.2042790411111106
mp-6914,CaGa,-0.4681819362500002
mp-11284,CaGa2,-0.5149619391666671
mp-1227781,CaGa2Cu3(RuO6)2,-1.6783520266250007
mp-41331,CaGa2Cu3(SbO6)2,-1.844838217875001
mp-1080561,CaGa2Ni,-0.4978158768750003
mp-1227072,CaGa3Pt,-0.6522369934999993
mp-1976,CaGa4,-0.3574153634999998
mp-17914,CaGa4O7,-2.517693754270834
mp-11811,CaGaAu,-0.7093738491666665
mp-557855,CaGaBO4,-2.9230811480952377
mp-1227107,CaGaBiB2O7,-2.6681337899652777
mp-1227096,CaGaCu,-0.3415679075
mp-1018093,CaGaGeH,-0.46293751278000006
mp-1101934,CaGaH4,-0.08938033366333305
mp-1213976,CaGaH5,-0.2845828129428568
mp-7263,CaGaN,-0.8483318632933337
mp-31152,CaGaPt,-0.9172259391666664
mp-1227042,CaGaSi,-0.44367037583333335
mp-1018090,CaGaSiH,-0.4079745890299997
mp-1101813,CaGaSn,-0.4914952616666663
mp-1018091,CaGaSnH,-0.4069321902799996
mp-1227314,CaGd2(GeO3)4,-2.817341747763157
mp-1227214,CaGd2BeO5,-3.559769997083333
mp-752679,CaGd2O4,-3.6806275267857154
mp-686296,CaGd2Zr(GaO3)4,-3.087585400625001
mp-758332,CaGd4O7,-3.763854173854168
mp-1227092,CaGdAlO4,-3.585097671785715
mp-1183618,CaGdCd2,-0.3531458843750004
mp-867315,CaGdHg2,-0.5307337693750007
mp-1183613,CaGdPd2,-0.7533204143749996
mp-1183601,CaGdRh2,-0.5883310668750017
mp-1227084,CaGdS2,-2.40795448140625
mp-695308,CaGdTh(PO4)3,-3.4334378714682536
mp-1183638,CaGdZn2,-0.2941478318749997
mp-2360,CaGe,-0.6623565962499995
mp-1191974,CaGe(PO4)2,-2.7830568230654755
mp-4279,CaGe2O5,-2.5242758076562493
mp-1105802,CaGe2Pt,-0.7442122306249992
mp-1043370,CaGe2WO6,-2.23476373825
mp-1205360,CaGe3,-0.2839039843749997
mp-21710,CaGeAu,-0.7263218397222226
mp-7801,CaGeN2,-0.8244332680649995
mp-17761,CaGeO3,-2.7663028469166675
mp-31153,CaGePt,-0.9122501033333328
mp-24044,CaH12(BrO3)2,-1.476040731830476
mp-23914,CaH12(ClO3)2,-1.5719041849980944
mp-758253,CaH12(IO6)2,-1.4243441381829631
mp-698021,CaH12(IO7)2,-1.321304721153103
mp-504880,CaH12CO9,-1.6486388402582601
mp-758221,CaH12S2(NO5)2,-1.5346282500490736
mp-1198182,CaH12S2O9,-1.5984544704297907
mp-721650,CaH14I10O7,-1.0553272014665622
mp-1195969,CaH14I2O7,-1.4121040702887495
mp-721699,CaH16C4(NO)10,-0.983595922237074
mp-1182729,CaH16C4N8(ClO2)2,-0.9742768094565716
mp-23713,CaH2,-0.6574621257466665
mp-23685,CaH2(CO2)2,-1.8368015101099988
mp-703574,CaH2(SO4)2,-2.2081947215665383
mp-24272,CaH20C4S4(NO6)2,-1.1223217493234896
mp-557769,CaH2C2O5,-2.0002245234739995
mp-644418,CaH2CClO3,-2.0409029588125005
mp-560832,CaH2CO4,-2.1878517448112507
mp-1104135,CaH2F4,-2.9359627627857146
mp-707754,CaH2I2O7,-1.4868570284158331
mp-1227045,CaH2Pd,-0.6317832036850001
mp-1195704,CaH2S2N2O9,-1.101525148992188
mp-1183578,CaH3,-0.18071484583999986
mp-722900,CaH3NO5,-1.719742478636499
mp-1207169,CaH3Pd,-0.6065853686719997
mp-696166,CaH4(ClO)2,-1.8533935717777776
mp-695831,CaH4(N3O)2,-0.8885127283661529
mp-1201650,CaH4Ir(OF3)2,-2.154137502972857
mp-720586,CaH4NClO5,-1.652024933655832
mp-23690,CaH4SO6,-2.0767815569618757
mp-733858,CaH4Se2O7,-1.6830615934226785
mp-1197414,CaH4Se2O9,-1.5633139639323437
mp-24534,CaH4SeO6,-1.75302801233948
mp-720384,CaH6C2(NO)4,-1.1519365746317642
mp-559469,CaH6C2O7,-1.7590712284668752
mp-1214678,CaH6C6(BrO4)2,-1.019187935509566
mp-1214366,CaH6C6(ClO4)2,-1.115630753184348
mp-1213994,CaH6PtO6,-1.471279448337143
mp-1182712,CaH8(BrO6)2,-1.1211926713678266
mp-24384,CaH8(ClO2)2,-1.666974898865333
mp-1204240,CaH8(ClO6)2,-1.2971319066513043
mp-1202729,CaH8(NO5)2,-1.477608922617619
mp-1214326,CaH8C6S2(NO4)2,-1.1800985478461112
mp-24422,CaHBr,-1.389769085373333
mp-23859,CaHCl,-1.7429605797933334
mp-642725,CaHClO,-2.4946781076575
mp-1227052,CaHF,-2.4301238424366662
mp-24204,CaHI,-1.1680985387066665
mp-34932,CaHN,-0.9141749428333324
mp-558164,CaHf4O9,-3.9574668975892857
mp-631479,CaHfBe,0.7227655608333325
mp-1036329,CaHfMg14O16,-2.935690856328124
mp-1037784,CaHfMg30O32,-2.998741035507812
mp-1023227,CaHfMg6,0.06922210093750003
mp-1029359,CaHfN2,-1.7884149076483336
mp-754853,CaHfO3,-3.83860195775
mp-1093751,CaHfRh2,1.884965764375
mp-1190098,CaHfS3,-2.170732206937501
mp-11286,CaHg,-0.56080128875
mp-1182509,CaHg(IO2)4,-0.8586552383035709
mp-30475,CaHg11,-0.0622990186805556
mp-1093912,CaHg2Bi,0.7960117193750001
mp-1097562,CaHg2Pb,0.851371685625
mp-1097452,CaHg2Pd,0.879095658125
mp-863648,CaHg3,-0.38871555312500017
mp-1093882,CaHgAu2,0.41803383812500017
mp-1198811,CaHgC4S4N4O3,-0.22230197791294035
mp-1205470,CaHgH16(BrO2)4,-1.3418673607640008
mp-7041,CaHgO2,-2.10553155
mp-1183570,CaHgO3,-1.2223212782500006
mp-20879,CaHgPb,-0.3414570991666667
mp-1097566,CaHgPd2,1.001189153125
mp-1048840,CaHo(BiO3)2,-2.486055435
mp-1041207,CaHo(CoO3)2,-2.3479108450000004
mp-1041214,CaHo(FeO3)2,-2.665417858500001
mp-1041241,CaHo(MoO3)2,-2.8522227395
mp-1041234,CaHo(NiO3)2,-2.0544067645000013
mp-1049288,CaHo(SbO3)2,-2.548223306
mp-1048836,CaHo(SnO3)2,-2.731050295
mp-1041228,CaHo(WO3)2,-2.69574281
mp-1227515,CaHo2(GeO3)4,-2.852560228289473
mp-1183597,CaHo3,0.13655591687500035
mp-1183561,CaHoCd2,-0.3451896506250001
mp-1041195,CaHoCr2O6,-2.9291869575
mp-1183554,CaHoHg2,-0.5334907356250003
mp-39739,CaHoMn2O6,-2.8013740566919987
mp-1183539,CaHoO3,-2.92124433125
mp-1183569,CaHoPd2,-0.7910054281250005
mp-866283,CaHoRh2,-0.6287283506249999
mp-1048847,CaHoTi2O6,-3.6394465188333323
mp-1041222,CaHoV2O6,-3.1304721490000014
mp-1183585,CaHoZn2,-0.2966119656249999
mp-1183572,CaI,-1.0038019337499997
mp-20263,CaIn,-0.4649357454166667
mp-21068,CaIn2,-0.427260134722222
mp-1200915,CaIn2(PO4)3,-2.618569675033069
mp-22602,CaIn2Au,-0.5224096622916665
mp-19968,CaIn2Cu,-0.3030751997916665
mp-1080611,CaIn2Ni,-0.3616800660416671
mp-22766,CaIn2O4,-2.4104460848809524
mp-22717,CaIn2Pd,-0.6101633872916667
mp-21027,CaIn2Pt,-0.6873185497916667
mp-1214064,CaIn2Rh,-0.5218177307291674
mp-672194,CaIn4Ni,-0.25113157097222266
mp-20108,CaIn4Pd,-0.42609538097222216
mp-21220,CaIn4Rh,-0.3975185976388893
mp-1183617,CaInAg2,-0.2991525652083333
mp-861960,CaInAu2,-0.595622617708333
mp-28534,CaInBr3,-1.5109545581666666
mp-570769,CaInCu4,-0.16728642513888894
mp-867201,CaInHg2,-0.3828456102083333
mp-1206105,CaInI3,-1.1537914821666664
mp-1183543,CaInO3,-1.9983761129166675
mp-620571,CaInPd,-0.7022895961111111
mp-1183586,CaInPd2,-0.647780640208333
mp-20220,CaInRh,-0.5440978394444448
mp-1093881,CaInRh2,1.836440609791666
mp-570436,CaIr2,-0.4519335758333334
mp-1183602,CaLa,0.0783459962499995
mp-1227082,CaLa(CoO3)2,-2.2422064125000007
mp-1043900,CaLa(FeO3)2,-2.651954474
mp-1227179,CaLa(GeIr)4,-0.7187847697499989
mp-1227525,CaLa2(FeO3)3,-2.74864639475
mp-560622,CaLa2B10O19,-3.161726297434895
mp-1227216,CaLa2BeO5,-3.557223642916666
mvc-15176,CaLa2BiO6,-3.0035881580000003
mvc-11031,CaLa2CoO6,-2.9551190425
mvc-13419,CaLa2CrO6,-3.1980218875000004
mvc-13412,CaLa2FeO6,-3.0166030345
mvc-10933,CaLa2Mn2(FeO6)2,-2.4411564070747382
mp-1227500,CaLa2Mn3O9,-2.8707130737753337
mvc-11030,CaLa2MnO6,-3.200528278596
mvc-11726,CaLa2MoO6,-3.2148436965
mvc-14545,CaLa2SbO6,-3.084748142000002
mvc-13402,CaLa2SnO6,-3.262324462
mvc-13117,CaLa2Ti2Cr2O12,-3.156637473464912
mvc-14929,CaLa2Ti2Mn2O12,-3.1008629309343854
mvc-13624,CaLa2TiO6,-3.695691572166667
mvc-11094,CaLa2VO6,-3.3853231645
mvc-15479,CaLa2WO6,-3.1512375895000004
mp-1227065,CaLa2ZrO6,-3.3873340805000014
mp-1227143,CaLa3(CoO4)2,-2.9546189869642867
mp-1227194,CaLa3(FeO3)4,-2.795266114124999
mp-1227476,CaLa3Mn4O10,-2.9079981988244463
mp-1227182,CaLa3Mn4O12,-2.908713685317
mp-1227076,CaLa3Si8,-0.5883688831249998
mp-1227220,CaLa4Si3O13,-3.7405329454166685
mp-1227252,CaLa4Ti3RuO15,-3.40622683921875
mp-694926,CaLa9Ti5Cr5O30,-3.4078717515666663
mp-862795,CaLaAg2,-0.3170146593750003
mp-1227186,CaLaAl3O7,-3.5890665151041667
mp-1227048,CaLaAl4,-0.4109755329166666
mp-1183579,CaLaAu2,-0.8297925368749999
mp-866000,CaLaCd2,-0.3748921193750001
mp-1048852,CaLaCr2O6,-2.908573681
mp-1048881,CaLaCrBiO6,-2.6589873430000006
mp-1048899,CaLaCrCoO6,-2.5605440165000006
mp-1040903,CaLaCrCuO6,-2.4704235320000003
mp-1043895,CaLaCrFeO6,-2.7965251439999994
mp-1048863,CaLaCrMoO6,-2.9284217205000003
mp-1048901,CaLaCrNiO6,-2.498770581999999
mp-1048846,CaLaCrSbO6,-2.7908259125
mp-1048919,CaLaCrSnO6,-2.9150068259999977
mp-1048921,CaLaCrWO6,-2.8844935945000016
mp-1097098,CaLaCu2,1.736766503125
mp-1043917,CaLaFeAgO6,-2.2312793740000005
mp-1043887,CaLaFeBiO6,-2.5631381975000007
mp-1043894,CaLaFeCoO6,-2.4900460435000005
mp-1043903,CaLaFeCuO6,-2.370513698500001
mp-1044000,CaLaFeMoO6,-2.8072380880000005
mp-1043874,CaLaFeNiO6,-2.3568325750000008
mp-1227068,CaLaFeO4,-2.9891382360714287
mp-1043864,CaLaFeSbO6,-2.7700312590000005
mp-1043948,CaLaFeSnO6,-2.801601564500001
mp-1044027,CaLaFeWO6,-2.829464745500001
mp-1096364,CaLaGa2,1.5500724731249995
mp-1227153,CaLaGa3O7,-2.8562788755208337
mp-1227181,CaLaGa3S6O,-1.8416091085937496
mp-1227198,CaLaGaCuO5,-2.6626688526388893
mp-559969,CaLaGaO4,-3.2371205117857142
mp-862846,CaLaHg2,-0.5617620268750001
mp-770473,CaLaI5,-1.5651218900000003
mp-861643,CaLaMg2,-0.10085167937500028
mp-1195311,CaLaMgAl2Si3HO13,-3.3425243755622733
mp-684801,CaLaMgTaO6,-3.5533052484999983
mp-39689,CaLaMn2O6,-2.787600377692
mp-1049271,CaLaMnCrO6,-2.8552820235960015
mp-40066,CaLaMnFeO6,-2.7627241810960013
mp-705412,CaLaMnMoO6,-2.8717544120960015
mp-1227173,CaLaMnNbO6,-3.221951513596001
mp-690556,CaLaMnRuO6,-2.640536148096001
mp-694915,CaLaMnSnO6,-2.813740491595999
mp-1227224,CaLaNbCoO6,-3.0704004505
mp-1183562,CaLaO3,-2.6881840342500007
mp-1097638,CaLaPb2,1.3257393856249995
mp-1097656,CaLaPd2,0.935897120625
mp-1095715,CaLaRh2,1.0065691206249996
mp-1227055,CaLaSi4,-0.5143448212499996
mp-1040806,CaLaTaCrO6,-3.3054950545000024
mp-1043970,CaLaTaFeO6,-3.2764020590000014
mp-39159,CaLaTiCrO6,-3.3843611046666684
mp-1043825,CaLaTiFeO6,-3.262570431666668
mp-40866,CaLaTiMnO6,-3.274489664262666
mp-1095769,CaLaTl2,1.4912853631249998
mp-1048855,CaLaVCrO6,-3.0634952059999985
mp-1043924,CaLaVFeO6,-2.946797543000001
mp-862962,CaLaZn2,-0.306167119375
mp-1227583,CaLu2(GeO3)4,-2.8641774714473693
mp-504539,CaLu2O4,-3.86676167
mp-1183559,CaLuHg2,-0.5064084443750001
mp-1227180,CaLuMn2O6,-2.811712810192
mp-1183596,CaLuPd2,-0.8022371693750001
mp-861869,CaLuRh2,-0.6678834718750002
mp-1039148,CaMg,-0.07933256874999994
mp-1214468,CaMg(B3O11)2,-1.0942262623333334
mp-6459,CaMg(CO3)2,-2.5866149202500006
mp-1227124,CaMg(PSe3)2,-0.7346710223348218
mp-554198,CaMg(SiO)2,-1.660437411666667
mp-6766,CaMg(SiO3)2,-3.3627850205
mp-1184449,CaMg149,-0.02226640311666661
mp-1036688,CaMg14AlO16,-2.973013098671875
mp-1036258,CaMg14BiO16,-2.7858128703906253
mp-1036231,CaMg14CO16,-2.727412981757812
mp-1036221,CaMg14CdO16,-2.9097578294531248
mp-1036443,CaMg14CoO16,-2.9378040411718747
mp-1036367,CaMg14CrO16,-2.964986727421876
mp-1036393,CaMg14CuO16,-2.902533873046875
mp-1036463,CaMg14FeO16,-2.9614953617968744
mp-1036400,CaMg14MnO16,-2.9767068908893752
mp-1036325,CaMg14NbO16,-2.901253099921875
mp-1036402,CaMg14NiO16,-2.9172938867968754
mp-1036298,CaMg14SiO16,-2.886789044296875
mp-1036389,CaMg14SnO16,-2.859852275078125
mp-1036369,CaMg14TiO16,-2.988443185442708
mp-1036366,CaMg14VO16,-2.9844153161718747
mp-1036412,CaMg14ZnO16,-2.962275770078125
mp-2432,CaMg2,-0.1144754274999998
mp-1229186,CaMg2(SO4)3,-2.6271659677604173
mp-696387,CaMg2H24(ClO2)6,-1.601728610865334
mp-1204766,CaMg2MnFe2(P2O13)2,-1.6549057883203169
mp-12695,CaMg2Ni9,-0.16701539312499966
mp-534863,CaMg2TiAl2SiO10,-3.3963561746568627
mp-1039383,CaMg3,-0.051540301875000034
mp-6524,CaMg3(CO3)4,-2.520727736375
mp-1227106,CaMg3(SiO3)4,-3.290132047125
mp-1038346,CaMg30AlO32,-3.0252531149609374
mp-1037798,CaMg30BiO32,-2.924340481914062
mp-1037944,CaMg30CO32,-2.895687120410156
mp-1037934,CaMg30CdO32,-2.9935975747265617
mp-1038117,CaMg30CoO32,-3.003400220585938
mp-1037925,CaMg30CrO32,-3.016595298710937
mp-1038089,CaMg30CuO32,-2.9838188552734377
mp-1038045,CaMg30FeO32,-3.015648672148437
mp-1037768,CaMg30MnO32,-3.022632459663437
mp-1037903,CaMg30NbO32,-2.9833439404296875
mp-1038123,CaMg30NiO32,-2.9934282326171866
mp-1038016,CaMg30SiO32,-2.976091095273437
mp-1037834,CaMg30SnO32,-2.9646406950390625
mp-1037872,CaMg30TiO32,-3.025092748502604
mp-1038136,CaMg30VO32,-3.026799745429688
mp-1037964,CaMg30ZnO32,-3.015478632070312
mp-541026,CaMg3Si3O10,-3.251881871764706
mp-1019579,CaMg3SiN4,-1.1748430059188886
mp-1039273,CaMg5,-0.028434509583333305
mp-1201051,CaMg5P3CO16,-2.9002159041414832
mp-1214060,CaMg5P3HCO16,-2.917044551899947
mp-1023215,CaMg6B,0.2726442944791669
mp-1023164,CaMg6C,0.2936321529687502
mp-1099114,CaMg6Co,0.16224094156250013
mp-1023193,CaMg6Nb,0.11881164031250036
mp-1099109,CaMg6Ni,0.06746195656250009
mp-1023329,CaMg6Zr,0.01662378406249987
mp-1227274,CaMg7(SiO3)8,-3.2644513189375
mp-1093662,CaMgAg2,1.046202873125
mp-7035,CaMgAsO4F,-2.9058779560862504
mp-6585,CaMgB2O5,-3.144727021342592
mp-720718,CaMgB6(HO)22,-1.974956828166154
mp-781555,CaMgB6H12O17,-2.2295978660051348
mp-1204390,CaMgB6O17,-1.815204821750001
mp-1227127,CaMgCd,-0.24147752916666665
mp-1183548,CaMgCd2,-0.25290610687500004
mp-1182791,CaMgFeP2O13,-1.7445592194742072
mp-15641,CaMgGe,-0.5710871975000001
mp-558362,CaMgGeO4,-2.886359426785714
mp-867144,CaMgHg2,-0.419611821875
mp-1095890,CaMgIn2,1.261596173958333
mp-13434,CaMgNi4,-0.1972006529166664
mp-24052,CaMgNiH4,-0.490030823854286
mp-1183532,CaMgO3,-2.24910445625
mp-1213968,CaMgPO4F,-3.3866687569791067
mp-861738,CaMgPb,-0.4384309258333336
mp-1102662,CaMgPd,-0.6118180000000001
mp-1227049,CaMgS2,-2.096239748906251
mp-5473,CaMgSi,-0.4383530091666668