task_id,composition,formation_energy_per_atom
mp-707494,B11H9C(Br3O2)2,-0.4066496583762359
mp-1228811,B11Rh18,-0.2923473852873565
mp-849805,B12H21C4S2I,-0.31936494941612564
mp-1200351,B12Pb6O25,-2.4138304151453496
mp-555170,B12S,0.30494176891826896
mp-1001602,B12W,0.21062085384615373
mp-576,B13C2,-0.07241597427777814
mp-27200,B13H19,-0.14422940704520834
mp-534,B13N2,-0.25482257742844466
mp-13862,B13P2,0.6769576426031743
mp-30935,B17F27,-2.409198284555984
mp-989472,B2(CN2)3,-0.3637787153512125
mp-28092,B20H26O,-0.06176109795113556
mp-1196291,B20H30C2S,-0.19421926629237332
mp-1228750,B20Ir4W5,-0.0989730711494264
mp-1228730,B24Mo7,-0.1368884287096773
mp-1182541,B24N4O,-0.1204044666644824
mp-29028,B2AsCl2,-0.6740468449706668
mp-1008528,B2AsP,-0.19755047011904736
mp-10681,B2Au,0.6669399822222223
mp-1079333,B2CN,-0.5327146761158329
mp-1228638,B2CN2,-0.7162145543686677
mp-1205212,B2F3,-2.339176774818167
mp-554598,B2H10C2NClO3,-1.0054302963907014
mp-558377,B2H12C3(NO)6,-1.146596919044942
mp-1204652,B2H20C6N3Cl5,-0.4775540503242597
mp-1204048,B2H26C8N20Cl2O,-0.6260680912342935
mp-27876,B2H3,-0.13538503096366555
mp-29655,B2H4C,-0.11528519611619005
mp-27990,B2H5,-0.16001043181190408
mp-1197839,B2H8N,-0.36250437451575707
mp-631586,B2IrCl,1.7794918508516666
mp-2331,B2Mo,-0.4320497294444437
mp-1196917,B2Mo(PbO2)6,-2.002795220396826
mp-20391,B2Mo2Ir,-0.3975112776666663
mp-1188450,B2Mo2Os,-0.34472825366666626
mp-1079053,B2Mo3,-0.3528190536666657
mp-1228661,B2MoRu,-0.2959755583333337
mp-1214908,B2NCl3,-1.3694309624433332
mp-614006,B2O,-0.7203976231944449
mp-2850,B2Os,-0.2153566027777778
mp-1188234,B2OsW2,-0.2611479881666668
mp-28426,B2PCl2,-0.7129789896492383
mp-1203791,B2PH20C5N,-0.3084141668622821
mp-1192421,B2Pb2O5,-2.3020819673611097
mp-662553,B2Pb2S5,-0.8621098520717602
mp-1203040,B2Pb4O7,-2.059934497852564
mp-553930,B2Pb6SO12,-2.023684286899802
mp-1198358,B2Pb6WO12,-2.0022796646825403
mp-2617,B2Pd5,-0.2533650819047618
mp-540900,B2PdO4,-2.2242582930952386
mp-1077,B2Ru,-0.28415782777777804
mp-1228657,B2RuW,-0.2327627270833333
mp-1019509,B2S2O9,-2.208029285592949
mp-1199451,B2S3,-0.8371292686641673
mp-558521,B2Se2O7,-1.917389187433712
mp-768235,B2TeO5,-2.2622750443229176
mp-779332,B2TeO6,-2.0774952512037053
mp-569803,B2W,-0.3586365636111116
mp-32715,B36O5,-0.6740975818597565
mp-642462,B3C10N3,0.03214328721000115
mp-1196163,B3H10N,-0.3126795747200001
mp-699467,B3H12CN4O,-0.34349200228380994
mp-778385,B3H3SeO9,-1.9390860585596088
mp-29446,B3H4,-0.004945572336428735
mp-1200137,B3H4NO5,-2.0104461263930764
mp-569405,B3H5,-0.1562188666374998
mp-699412,B3H52C16(NO)12,-0.5575852631768409
mp-1236886,B3H5N3,-0.7694826113854542
mp-677715,B3H60C16(NO)12,-0.6881741352500965
mp-696308,B3H7CO,-0.2710070500283332
mp-696812,B3H7N,0.03129539748000034
mp-1080111,B3Mo,-0.3100103124999993
mp-1079348,B3Os2,-0.25834391200000084
mp-1229254,B3Pb10Br3O13,-1.8204138464224144
mp-1200969,B3Pb3NO10,-2.0617198155811773
mp-1195239,B3Pb6BrO10,-2.022518644499999
mp-560833,B3Pb6ClO10,-2.070316259538
mp-1195003,B3Pb6O10F,-2.1359833715594987
mp-1196893,B3Pd16,-0.20714141815789552
mp-1106065,B3Rh7,-0.23920591750000145
mp-13854,B3Ru2,-0.3329817149999997
mp-17535,B3Ru7,-0.13610360599999752
mp-545479,B4CCl6O,-1.0407387596855555
mp-553954,B4COF6,-2.1959273611505563
mp-27798,B4H5,-0.16096113240462984
mp-1228687,B4Mo,0.0030285113333330107
mp-1228634,B4MoIr,-0.2396106844444444
mp-1228655,B4MoRu2,-0.3014583680952378
mp-1215095,B4N2O11,-1.3220203758927442
mp-1188147,B4Os,0.6536320466666666
mp-1228631,B4OsW,-0.2892022386111132
mp-27426,B4PF9,-2.515923105679966
mp-1201222,B4Pb6O13,-2.0212394954529
mp-9747,B4PbO7,-2.662345098368056
mp-567926,B4Rh5,-0.3620000846296294
mp-29306,B5(H2N)2,-0.16616170387030332
mp-30936,B5F6,-2.1067010414066663
mp-30529,B5H11,-0.1401180426970825
mp-27892,B5H11N2,-0.32313439293962964
mp-723094,B5H12C2NO10,-1.6756557438884443
mp-703444,B5H12NO12,-1.916522450305112
mp-600191,B5H15C3N,-0.2594950370838885
mp-707942,B5H2Pb2O11,-2.304897294341167
mp-1201949,B5H4,0.1847883805901852
mp-721905,B5H4NO10,-1.8886304200096664
mp-1196660,B5H4NO8,-2.2383494526496293
mp-30977,B5H6Br,-0.2140288283377784
mp-706630,B5H7,-0.17176872197277682
mp-29611,B5H8,-0.1362577367148718
mp-721584,B5H8NO12,-1.7712747626797436
mp-29783,B5H9,-0.14676311720809515
mp-27893,B5H9N,-0.31647492346955536
mp-1182499,B5I,0.6390723515277775
mp-1228672,B5Ir3W2,-0.35635014833333395
mp-1204898,B5NO12,-1.3588935033729628
mp-758806,B5PH4Cl,-0.34753990279238034
mp-23623,B5Pb2BrO9,-2.518809630122549
mp-557103,B5Pb2ClO9,-2.5767712160496066
mp-1200548,B5Pb2IO9,-2.4745168093872554
mp-779174,B5SbO10,-2.485860951302084
mp-1203749,B5TeH5C,-0.09487209001527752
mp-8079,B5W2,0.2607137023809512
mp-624,B6As,-0.17024617857142893
mp-849797,B6H10C2SBr,-0.350143270450625
mp-31064,B6H10N,-0.3788401240341172
mp-1201564,B6H13CN4,-0.3453575745970833
mp-560159,B6H21C5N2O,-0.3795270591651429
mp-1346,B6O,-0.8090574701785717
mp-1197636,B6P2H14N2O19,-1.8961643184529235
mp-1096825,B6Pb,0.11680287714285648
mp-1197284,B6Pb3O11F2,-2.561570063460455
mp-27820,B7H10,-0.13898160671274445
mp-758800,B84O11,-0.6362462442500002
mp-733481,B8H10N,-0.08597620339017527
mp-1228685,B8O,-0.6071612753240733
mp-1228676,B8P,-0.07559983171957659
mp-1198815,B8P2H18IrC8Cl,0.10255127122265748
mp-1199795,B8P2H39RhC13,-0.2591113561912546
mp-1198024,B8PH24PtC7,-0.2303205396001501
mp-1201012,B8PbO15,-2.3557338084201382
mp-505535,B8Ru11,-0.14237556307017485
mp-633538,B9C,0.30870491412500056
mp-29654,B9H11,-0.17421671892849985
mp-28052,B9H11C2,-0.17743444527590926
mp-28668,B9H11N4,-0.2089197899724997
mp-27202,B9H8S,-0.19834402877902824
mp-1079812,B9N,2.2499281717619994
mp-1182634,B9Pb8O21F,-2.3829487844215387
mp-622018,BAs5(Pb3O10)2,-1.8358586883333328
mp-1191775,BAsH4NO4F,-1.6750827295597226
mp-3277,BAsO4,-2.147066934444444
mp-22430,BAsPbO5,-2.0877538822395816
mp-1183149,BAu,0.8332735991666667
mp-1183146,BAu3,0.8819850983333333
mp-1183212,BAuO3,-0.2960544140833342
mp-685043,BBr,-0.3451380813888889
mp-23225,BBr3,-0.5306924866666667
mp-984728,BC,0.4999632947916668
mp-1215031,BC10XeF17,-1.3611825414447132
mp-1214900,BC12ClF10,-0.9625973889302782
mp-1215033,BC24Br(NF2)6,-0.6159953774483323
mp-629458,BC2N,-0.1987238166366669
mp-1239206,BC3,0.2479932027083329
mp-1077125,BC5,0.22139210326389028
mp-1214918,BC6BrNF5,-0.9347324313688088
mp-1195493,BC6XeF11,-1.3323247364345614
mp-1078935,BC7,0.197137899010416
mp-1199460,BCl,-0.9363431823591668
mp-557856,BCl(OF2)2,-2.040094170273333
mp-23316,BCl2,-1.1428589735622232
mp-23184,BCl3,-1.4166441641116672
mp-23398,BClF6,-2.1457821446333334
mp-27864,BF2,-2.661401575515556
mp-558149,BF3,-3.1308971297466672
mp-1238837,BH,-0.0624632622266669
mp-1105235,BH(PbO2)2,-1.9417781025358327
mp-734069,BH10C2N5O3,-0.9404828843341264
mp-698289,BH11AuC4IN2,-0.26571584731233244
mp-554318,BH11C4BrNF4,-0.9766826808466664
mp-559235,BH11C4NClF4,-1.0241067659948486
mp-1182357,BH12C3N,-0.2903486369845099
mp-1200814,BH12N4F3,-1.1470546454098334
mp-1204476,BH17C6NCl,-0.3552555606287173
mp-696298,BH2CO,-0.4610084552813341
mp-29475,BH2N,-0.7099340034466669
mp-720847,BH2NCl2,-1.1447884189399995
mp-707009,BH2OF3,-2.4475076505323803
mp-1214776,BH2S3N3F4,-1.4012783886918585
mp-634117,BH3,-0.14437083500666592
mp-24160,BH3NF3,-2.0185691571533333
mp-697120,BH3NF4,-2.068431007185185
mp-696379,BH3OF4,-2.352780560948518
mp-1193817,BH4C4N5,-0.15716809521761885
mp-27341,BH4N,-0.5498371896155549
mp-720391,BH4NF4,-2.045395301078666
mp-696656,BH4O2F3,-2.1418932209716672
mp-706612,BH5(NF2)2,-1.677601137023889
mp-1196968,BH5(OF2)2,-2.1167375674605555
mp-706227,BH5C4(N2O)2,0.048296863325834494
mp-696210,BH5CN2,-0.37677704814185137
mp-706606,BH5CSN2,-0.4501900087339159
mp-1106172,BH5NCl,-0.6879991513008337
mp-862539,BH6CN3F4,-1.506900710602444
mp-1188579,BH6N,-0.44340607384583297
mp-699265,BH6Ru3C6O19F4,-1.1469078398563244
mp-27612,BH7N2,-0.3359984320516659
mp-567989,BH8CN,-0.3658039597051515
mp-558506,BH9(CO)3,-0.8486976083904167
mp-1200679,BHN4,-0.4487885344122218
mp-1198592,BHO2,-2.3092583869466665
mp-1200187,BHS3O11,-1.935260093201511
mp-23189,BI3,-0.06390931666666687
mp-1183252,BIr,-0.19124958333333364
mp-1183221,BIrO3,-0.3035680980833334
mp-28897,BIrPd,-0.2737602563888899
mp-2501,BMo2,-0.30863252222221976
mp-4472,BMo2C,-0.2307192588541671
mp-1238849,BMoC,0.42650450652777866
mp-1228637,BMoW,-0.2896996922222215
mp-1228641,BMoWC,-0.16789669885416636
mp-7991,BN,-1.4721173770233325
mp-555207,BN(OF2)2,-2.164306272038333
mp-27486,BN3Cl2,-0.6238543207488895
mp-1203052,BNCl,-0.5698873460466669
mp-23045,BNCl2,-0.946016069725
mp-1182455,BNF4,-1.5782679989677768
mp-4674,BNF8,-1.8080010341066668
mp-1182442,BO2F3,-2.1229115179561115
mp-1192099,BO3,-0.9269225871875004
mp-997617,BOs,-0.2422798358333331
mp-1183263,BOs3,0.7691310583333326
mp-1203648,BOs3(CO)10,-0.7930276238194445
mp-984553,BOsO3,-0.2416386550833337
mp-1203334,BP(H3N)3,-0.4696428754306804
mp-567433,BP(IBr)3,-0.32054998953869074
mp-1201606,BP(PbO2)4,-2.1573590692006794
mp-569608,BP2N2Cl7,-1.117467298627698
mp-1182507,BP2Pb2O9,-2.362893397121599
mp-1203864,BP3(PbO4)3,-2.48759623739975
mp-1200474,BP4(HO2)3,-1.4890267193641489
mp-863030,BP4(SBr)3,-0.4743101588568728
mp-1197482,BP4(SI)3,-0.3231903306750545
mp-1202148,BP4H36Rh(C9F5)4,-0.6050867732587567
mp-1228851,BP5(Pb3O10)2,-2.4277699231994045
mp-568514,BPBr2NCl3,-0.9083923904336904
mp-1201622,BPBr6,-0.4748883157886903
mp-1195775,BPH4NO4F,-1.9849282811966271
mp-758984,BPH9C2,-0.28133006010688616
mp-3589,BPO4,-2.78180854063492
mp-21266,BPPbO5,-2.5630343868824395
mp-27724,BPS4,-0.7546910241765884
mp-1202733,BPb2O3F,-2.28063592642
mp-1201056,BPb3O4F,-2.0976033764285185
mp-1201413,BPb7Br3O7,-1.6021024539120363
mp-984554,BPbO3,-1.0803523400833337
mp-7424,BPd2,-0.2654411555555557
mp-631580,BPd2Br,0.9954328858333326
mp-20517,BPd3,-0.2566490072916663
mp-1228665,BPd5,-0.07961800444444478
mp-1214755,BPd6,-0.1949946666666673
mp-1183242,BPdO3,-0.5708948980833334
mp-1096829,BPt,0.0553904816666666
mp-1077788,BPt2,-0.18539574888888904
mp-861943,BPt3,-0.02457128166666589
mp-1183277,BPtO3,-0.3352990460833333
mp-567164,BRh,-0.3787411233333336
mp-1183231,BRu3,0.4670708633333334
mp-540668,BS2,-0.8371068393055564
mp-556762,BS2N2OF7,-1.8388576645485908
mp-1201734,BS4(NF)4,-1.1807653384382053
mp-16813,BS4N4F3,-1.0806160280005563
mp-27245,BSBr,-0.7366572213541668
mp-27349,BSF7,-2.6166952307287965
mp-755829,BSbO3,-2.243145075583334
mp-1214789,BSe2,-0.1342975071180549
mp-561226,BTe3(OF5)3,-2.364560052193939
mp-1183194,BTeO3,-0.8358561780833341
mp-7832,BW,-0.3679502495833339
mp-1113,BW2,-0.2606483872222232
mp-27286,Ba(Ag3O2)2,-0.8438084572727272
mp-13910,Ba(AgGe)2,-0.3362179059999996
mp-1096838,Ba(AgO)2,-1.4109526824999996
mp-8579,Ba(AgS)2,-1.1352572776250005
mp-7882,Ba(AgSn)2,-0.4034756799999997
mp-18501,Ba(AgTe)2,-0.7885446850000004
mp-30023,Ba(AlCl4)2,-2.278923151461818
mp-1207061,Ba(AlGa)2,-0.3672771579999996
mp-570482,Ba(AlGe)2,-0.3947403385000001
mp-14246,Ba(AlS2)2,-1.8497017525595247
mp-1228740,Ba(AlSe2)2,-1.3105623024107145
mp-5506,Ba(AlSi)2,-0.29501218850000016
mp-28505,Ba(AlTe2)2,-0.8976935814285706
mp-1196154,Ba(As2O7)2,-1.3225430646052634
mp-14501,Ba(As3Pt2)2,-0.6663392140909091
mp-1214761,Ba(As3Ru)4,-0.4147027941176472
mp-571350,Ba(AsPd)2,-0.7737739339999997
mp-568113,Ba(AsRh)2,-0.8154260060000006
mp-4109,Ba(AsRu)2,-0.6942193880000005
mp-28719,Ba(AuF4)2,-2.2240355422290907
mp-558168,Ba(AuF6)2,-1.823476796285333
mp-9297,Ba(AuO2)2,-1.4543356349999996
mp-1228679,Ba(B2Pt3)2,-0.4307062106060613
mp-1203559,Ba(BH)12,-0.4388079057376001
mp-12073,Ba(BIr)2,-0.4880148486666671
mp-540659,Ba(BO2)2,-3.11056447452381
mp-1204604,Ba(BO2)5,-2.5720156125520823
mp-1201084,Ba(BO4)2,-1.4526442655303022
mp-7349,Ba(BRh)2,-0.4745802226666676
mp-30126,Ba(BS2)2,-1.3682052742261903
mp-570823,Ba(BSe3)2,-0.5762119233217591
mp-12927,Ba(BeN)2,-1.1148292019519992
mp-1047467,Ba(BiO2)4,-1.561084461538462
mp-571599,Ba(BiPd)2,-0.6361481600000005
mp-1228976,Ba(BiS2)2,-1.2715025526388894
mp-1190125,Ba(BrF4)2,-2.1212786617745456
mp-1079338,Ba(BrO)2,-0.8299613534999996
mp-554626,Ba(BrO3)2,-1.1808686030555562
mp-669448,Ba(C2N3)2,0.19986516802000087
mp-1214983,Ba(C2O5)2,-1.587470005166667
mp-30237,Ba(CO)4,-1.5054155688888895
mp-1193053,Ba(CO2)2,-1.7850278514285702
mp-1214990,Ba(CO3)2,-1.4341332255555566
mp-1104609,Ba(Cd2Pt)2,-0.4573894678571432
mp-8281,Ba(CdAs)2,-0.6389245219999999
mp-1069712,Ba(CdGe)2,-0.3116450099999998
mp-8279,Ba(CdP)2,-0.5858721708571426
mp-8150,Ba(CdSb)2,-0.5469296620000001
mp-38417,Ba(CeS2)2,-2.3567324651785717
mp-1182380,Ba(ClO)2,-1.163592452804
mp-28512,Ba(ClO3)2,-1.3931510410022223
mp-1190390,Ba(ClO4)2,-1.2330173055927267
mp-21918,Ba(Co5As3)2,-0.29763607147058857
mp-20563,Ba(CoAs)2,-0.611375798000001
mp-1070253,Ba(CoGe)2,-0.33212147599999964
mp-1029457,Ba(CoN)2,-0.5169522829520006
mp-1041292,Ba(CoO2)4,-1.318057873076922
mp-1195776,Ba(CoSn4)2,-0.2358611104545451
mp-1229162,Ba(Cr5S8)2,-1.2114254142592602
mp-571339,Ba(CrAs)2,-0.4653921419999996
mp-1029568,Ba(CrN2)2,-0.7820537785028556
mp-16052,Ba(Cu2As)2,-0.3255026885714284
mp-14786,Ba(Cu2As)4,-0.21485972615384588
mp-14785,Ba(Cu2P)4,-0.2835097845054953
mp-505215,Ba(Cu3As)2,-0.2676561411111109
mp-618788,Ba(Cu5P2)2,-0.22783158890476235
mp-9247,Ba(CuAs)2,-0.5079815419999996
mp-7374,Ba(CuO)2,-1.6232386784999997
mp-1147739,Ba(CuO)4,-1.2944039072222222
mp-568474,Ba(CuP2)2,-0.4650620569387749
mp-5970,Ba(CuS)2,-1.193270167624999
mp-1080702,Ba(CuSb)2,-0.4698129850000001
mp-4473,Ba(CuSe)2,-0.8828710694374997
mp-30133,Ba(CuTe)2,-0.7275385824999994
mp-1193410,Ba(DyS2)2,-2.52034553375
mp-1193797,Ba(DySe2)2,-1.9709720409821432
mp-17927,Ba(DyTe2)2,-1.5416852189285717
mp-1192439,Ba(ErS2)2,-2.5210009662500004
mp-1192805,Ba(ErSe2)2,-1.9698715377678573
mp-17928,Ba(ErTe2)2,-1.5271809803571428
mp-582518,Ba(Fe2O3)9,-1.8155718607336973
mp-568961,Ba(FeAs)2,-0.5382262320000002
mp-568396,Ba(FeBr4)2,-0.9985751381818184
mp-19154,Ba(FeO2)2,-2.240608957142857
mvc-10874,Ba(FeO2)4,-1.7229873784615382
mp-4883,Ba(FeP)2,-0.814939962857143
mp-27660,Ba(FeS2)2,-1.2442779451785722
mp-1189647,Ba(FeSb3)4,-0.17890016176470672
mp-1077893,Ba(FeSe2)2,-0.7030785034821433
mp-1183302,Ba(GaAs)2,-0.645077645
mp-1206799,Ba(GaH)2,-0.4872752334480001
mp-680226,Ba(GaO2)2,-2.624161755952381
mp-1199346,Ba(GaO3)2,-1.6467937098611114
mp-1105728,Ba(GaP)2,-0.6515992713571428
mp-504985,Ba(GaPt)2,-0.8122860805000002
mp-849286,Ba(GaS2)2,-1.5537593357738102
mp-29938,Ba(GaSb)2,-0.5234877497500001
mp-7841,Ba(GaSe2)2,-1.0923156034821433
mp-38117,Ba(GaTe2)2,-0.7808637057142853
mp-1192904,Ba(GdS2)2,-2.51035491982143
mp-1194410,Ba(GdSe2)2,-1.9763390906249991
mp-1182773,Ba(GdTe2)2,-1.556113696071429
mp-642304,Ba(Ge3Pt)4,-0.3671190894117645
mp-27810,Ba(GeAs)2,-0.5035159974999999
mp-1228646,Ba(GeAu)2,-0.4922157079999998
mp-27809,Ba(GeP)2,-0.5051273193571433
mp-10698,Ba(GeRh)2,-0.7442712860000007
mp-30050,Ba(GeRu)2,-0.4682148580000003
mp-625888,Ba(H2O3)2,-1.4215912856345447
mp-626263,Ba(H8O5)2,-1.4961257922377773
mp-1182823,Ba(H9O5)2,-0.9548290550055172
mp-1214843,Ba(HCl)2,-0.8629439912520003
mp-626973,Ba(HO)2,-2.1276633684479997
mp-625873,Ba(HO2)2,-1.472845262105714
mp-686673,Ba(Hf2As3)6,-0.508373643709677
mp-1193583,Ba(HoS2)2,-2.5218769980357147
mp-17273,Ba(HoTe2)2,-1.5356271914285722
mp-30991,Ba(IO3)2,-1.5603576375000006
mp-574176,Ba(InAu)2,-0.5553189918333331
mp-1214759,Ba(InCu)2,-0.15637497933333294
mp-1105940,Ba(InP)2,-0.5799026016904761
mp-1214750,Ba(InPt)2,-0.6745823553333331
mp-21943,Ba(InS2)2,-1.461094518809524
mp-1214945,Ba(InSb2)2,-0.3538755623809524
mp-21766,Ba(InSe2)2,-1.0364878726488098
mp-21183,Ba(InTe2)2,-0.7779061980952383
mp-674187,Ba(IrO3)2,-1.7166341752777785
mp-754198,Ba(LaI4)2,-1.5378223227272727
mp-33615,Ba(LaS2)2,-2.5262968080357147
mp-37741,Ba(LaSe2)2,-2.0338501034821426
mp-984052,Ba(LuS2)2,-2.510804726250001
mp-1192674,Ba(LuSe2)2,-1.9489117099107145
mp-1192634,Ba(LuTe2)2,-1.4877100260714289
mp-8280,Ba(MgAs)2,-0.9436691900000004
mp-29209,Ba(MgBi)2,-0.6002091180000001
mp-7876,Ba(MgGe)2,-0.4682808499999997
mp-1214765,Ba(MgIn)2,-0.29163330333333304
mp-8278,Ba(MgP)2,-0.9303032408571432
mp-20452,Ba(MgPb)2,-0.3796462569999999
mp-9567,Ba(MgSb)2,-0.7676703799999999
mp-7875,Ba(MgSi)2,-0.3314095179999999
mp-29622,Ba(MgSn)2,-0.48253284399999996
mp-15608,Ba(MnAs)2,-0.5530706100000004
mp-1068010,Ba(MnBi)2,-0.09913716000000007
mp-22412,Ba(MnGe)2,-0.2344495079999987
mp-19857,Ba(MnP)2,-0.7579707828571429
mp-567240,Ba(MnSb)2,-0.3085693499999998
mp-22679,Ba(MnSn)2,-0.12831537799999992
mp-624196,Ba(Mo3O5)2,-1.92785677
mp-5716,Ba(Mo3S4)2,-1.245881174166667
mp-1029505,Ba(MoN2)2,-0.6902469985028561
mp-1047842,Ba(MoO2)4,-1.6927703992307692
mp-1104001,Ba(MoSe)3,-0.7989958851116066
mp-27897,Ba(NO2)2,-1.5940471756799997
mp-4396,Ba(NO3)2,-1.686787311362223
mp-752573,Ba(NaSi2)2,-0.16797409250000025
mp-1029502,Ba(NbN2)2,-1.1147948437409512
mp-866306,Ba(NdS2)2,-2.4725603237500007
mp-36007,Ba(NdSe2)2,-1.9196141777678573
mp-17236,Ba(Ni2B)6,-0.3074477694736843
mp-14765,Ba(Ni5P3)2,-0.6348404619327731
mp-568280,Ba(NiAs)2,-0.654874556
mp-18991,Ba(NiO2)4,-1.0988028507692311
mp-9473,Ba(NiP)2,-0.7739216208571428
mp-28927,Ba(NiP2)2,-0.6535427026530617
mp-1104130,Ba(P2Au)2,-0.4771280597959183
mp-28895,Ba(P2Pd)2,-0.6641935797959186
mp-11169,Ba(PIr)2,-0.8338105568571436
mp-2983,Ba(PN2)2,-1.05193567268653
mp-559939,Ba(PO3)2,-2.9981162565873016
mp-1191385,Ba(PO4)2,-2.193438694025973
mp-12056,Ba(POs)2,-0.6742366988571433
mp-8236,Ba(PPd)2,-0.7949696848571435
mp-8583,Ba(PRh)2,-0.9552399968571428
mp-4484,Ba(PRu)2,-0.9408783468571428
mp-759541,Ba(PdO2)2,-1.5294202428571424
mp-28967,Ba(PdS2)2,-1.2170679694642863
mp-36223,Ba(PrS2)2,-2.4227109508928573
mp-33606,Ba(PrSe2)2,-1.9272388070535715
mp-1029619,Ba(ReN2)2,-0.4611094994552386
mp-1196150,Ba(ReO6)2,-1.4396966005000005
mp-30432,Ba(RhPb2)3,-0.2421274235000013
mp-561944,Ba(RuO2)6,-1.6032726855263153
mp-1200730,Ba(SO2)2,-2.2044421575892863
mp-1197994,Ba(SO2)4,-1.7599036725961537
mp-1182450,Ba(SO4)2,-1.6707893634659092
mp-1198200,Ba(SO4)5,-1.6426600231850967
mp-1106056,Ba(Sb3Os)4,-0.1655494805882348
mp-9976,Ba(Sb3Ru)4,-0.3357707111764712
mp-570298,Ba(SbAu)2,-0.6073651700000007
mp-1200875,Ba(SbO2)3,-2.0356156945
mp-1047430,Ba(SbO2)4,-1.8219693838461533
mp-9127,Ba(SbO3)2,-2.3935972152777776
mp-1079967,Ba(SbPd)2,-0.8014711300000001
mp-1069937,Ba(SbRu)2,-0.43839454000000017
mp-28129,Ba(SbS2)2,-1.2157341866071434
mp-4727,Ba(SbSe2)2,-0.7986877615178563
mp-17501,Ba(ScTe2)2,-1.4010855449999997
mp-1182383,Ba(SeO3)2,-0.8543246438541671
mp-567771,Ba(Si3N4)2,-1.3261592159359992
mp-14561,Ba(SiIr)2,-0.8406991099999999
mp-27388,Ba(SiNi)2,-0.5532316850000008
mp-18655,Ba(SiRh)2,-0.8703803485000009
mp-1194376,Ba(SmS2)2,-2.4945868380357146
mp-1193757,Ba(SmSe2)2,-1.9645787927678569
mp-17786,Ba(SmTe2)2,-1.5547867507142854
mp-1190471,Ba(Sn2Ru)3,-0.3309779165000002
mp-1047280,Ba(SnO2)4,-1.8942602723076924
mp-1120806,Ba(SnSe)32,-0.4413577382307695
mp-1029616,Ba(TaN2)2,-1.296979806717142
mp-1193223,Ba(TbS2)2,-2.5193516111309533
mp-17153,Ba(TbTe2)2,-1.5484086738095235
mp-1228689,Ba(TeMo)6,-0.4747927592307694
mp-27254,Ba(TeO3)2,-2.0129980230555558
mp-31275,Ba(TeP2)2,-0.5147292437244901
mp-3392,Ba(TlHg)2,-0.3210781005000001
mp-1193579,Ba(TmS2)2,-2.5191664237500007
mp-1193169,Ba(TmSe2)2,-1.958243878125
mp-18196,Ba(TmTe2)2,-1.5160072450000004
mp-1228781,Ba(V3S4)4,-1.4544973287931042
mp-1228772,Ba(V5S8)2,-1.4504964535185192
mp-1029918,Ba(VN2)2,-1.1246135763599991
mp-1041454,Ba(WO2)4,-1.4441061992307704
mp-868170,Ba(WO3)6,-2.301748918300001
mp-29036,Ba(YS2)2,-2.5234111048214296
mp-1193099,Ba(YSe2)2,-1.9804000002678568
mp-17872,Ba(YTe2)2,-1.5588781342857143
mp-1194322,Ba(YbS2)2,-2.088440800178572
mp-7427,Ba(ZnAs)2,-0.6736597194999998
mp-1206924,Ba(ZnGe)2,-0.3764239079999996
mp-7426,Ba(ZnP)2,-0.6464583728571427
mp-14207,Ba(ZnSb)2,-0.5285579575
mp-1070267,Ba(ZnSi)2,-0.2913551159999997
mp-13920,Ba(ZnSn)2,-0.4066530270000001
mp-27568,Ba10Al3Ge7,-0.5032072609999997
mp-1228723,Ba10Br4N5Cl,-1.3337602722580002
mp-1228725,Ba10BrN5Cl4,-1.4895221872469997
mp-1229139,Ba10Ca5Cu10Hg5O31,-2.0107418492827867