task_id,composition,formation_energy_per_atom
mvc-15905,AlMoO3,-2.52418971325
mp-565804,AlMoP2O9,-2.758976504079669
mp-1191162,AlNCl4,-0.4526630579866667
mp-1197328,AlNF4,-2.0038597835233327
mp-1487,AlNi,-0.6594247849999997
mvc-694,AlNi(WO4)2,-2.0828593524999994
mp-1228849,AlNi2As,-0.3526882162500007
mp-1214877,AlNi2BO5,-2.201100741712964
mp-2593,AlNi3,-0.4295839824999996
mp-1207084,AlNi3C,-0.17598177974999984
mvc-6742,AlNi3F15,-1.7810804609394737
mp-1045571,AlNi3Se2ClO8,-1.3327326783631672
mp-1228845,AlNi4As3,-0.3255155568749997
mp-1228832,AlNi6Ge,-0.3560938568750007
mp-1228861,AlNi6Pd,-0.17424431999999968
mp-1194505,AlNi9B8,-0.28507035490740723
mp-1214829,AlNiAg2F7,-2.4569619407572727
mvc-14726,AlNiF5,-3.0813505158500014
mp-1228803,AlNiGe,-0.4097038283333336
mp-773587,AlNiH16N(OF)6,-1.7457237608851608
mvc-14277,AlNiO3,-1.92205796475
mp-1096407,AlNiPt2,2.04055816
mp-1096379,AlNiRh2,2.5440984575
mp-8023,AlO,-1.5633622056249994
mp-1182858,AlO2,-2.6864377991666664
mp-35200,AlO3,-1.6054696234375
mp-1228805,AlOF3,-2.1528949939640003
mp-875,AlOs,-0.4140713724999996
mp-24045,AlP(H2O3)2,-2.2405660961769045
mp-1214940,AlP(HO2)2,-1.781358126172857
mp-1182873,AlP2,0.029731238988095043
mp-1214981,AlP2CN3O10,-0.783293938980925
mp-1215134,AlP2H12N3O8,-1.6524154592256048
mp-1197634,AlP2H16C2N3O8,-1.3713760847451786
mp-1197086,AlP2H18(C2Cl)3,-0.5474770701408563
mp-721876,AlP2H5O9,-2.2543129327138653
mp-28046,AlP2I9,-0.29792786035714336
mp-1193181,AlP2O11,-1.39676607450255
mp-556596,AlP3(HO2)6,-2.2614599549158445
mp-722269,AlP3(HO5)2,-2.5832900055417856
mp-683949,AlP3(NCl3)3,-1.2095801912755355
mp-1182917,AlP3C3NO9,-1.5613541346357995
mp-1203148,AlP3O10,-2.5168625849234703
mp-569751,AlPH8(CCl2)2,-0.8622270126026779
mp-568423,AlPI8,-0.34222797971428565
mp-567975,AlPNCl5,-1.4435224838528566
mp-7848,AlPO4,-3.1376963311904755
mp-1193321,AlPO5,-2.3916588997704085
mp-1202156,AlPO6,-1.877956399955357
mp-1228856,AlPPd4,-0.6616862648015874
mp-1025271,AlPPt5,-0.6122548131632654
mp-1071955,AlPS4,-1.0335315663988087
mp-1183278,AlPb3,0.15869687499999996
mp-1182997,AlPb3OF9,-2.8225810842471435
mp-1199988,AlPb3SO11,-1.5313771004882817
mp-1214948,AlPbF5,-3.38288603335
mp-1183154,AlPbO3,-2.2064061447499994
mp-669546,AlPd,-0.909223002307692
mp-2824,AlPd2,-0.8280263816666675
mp-1183143,AlPd3,-0.6119483350000001
mp-605663,AlPd5,-0.4615594004166669
mp-1178574,AlPdO3,-1.98634137975
mp-10904,AlPt,-1.0466967362499997
mp-16960,AlPt2,-0.8626888700000007
mp-607111,AlPt3,-0.7054119781249995
mp-10040,AlPt3C,0.20424494225000064
mp-1228815,AlRe,-0.3145132562500006
mp-1042310,AlRe(WO4)2,-2.2053818627083337
mp-10909,AlRe2,-0.2648709749999997
mp-1228817,AlReGe,-0.246405380833334
mp-1228809,AlReSi,-0.4807025391666666
mp-1097163,AlReTc2,3.791459480625
mp-364,AlRh,-1.0904238350000002
mp-1183306,AlRh3,-0.4765134162500004
mp-1178547,AlRhO3,-2.2378393477500014
mp-542569,AlRu,-0.6884812775000002
mp-1093864,AlRu2W,3.3890388575
mp-557272,AlS2(NCl2)2,-1.0016506223249988
mp-559963,AlS2NCl4,-1.2187341316931248
mp-559940,AlS2NCl6,-1.1759212370065
mp-1238525,AlS2NO20,-0.34384745439604164
mp-1214883,AlS2NO8,-1.5826835575420837
mp-558270,AlS5N5Cl4,-0.6374510645168338
mp-1079481,AlSBr3,-0.5708014508125
mp-558847,AlSBr3N,-0.7923883594070826
mp-556418,AlSCl3O2,-1.9231519609060723
mp-555805,AlSCl7,-1.3441767674313891
mp-1214856,AlSNCl3,-1.3278609922870832
mp-1182973,AlSO10,-0.952691044505208
mp-1041645,AlSb(WO4)2,-2.2599130420833333
mp-1194909,AlSb2(SeCl2)2,-1.1880020136363894
mp-567743,AlSb2(TeCl2)2,-1.125693871865556
mp-1047485,AlSb3F15,-2.7650958143605258
mp-1228843,AlSb3Pb4O13,-1.9955050267261911
mp-1048241,AlSb3Se2ClO8,-1.3947981643631664
mp-1192837,AlSb5Se5Cl4,-0.79792234906725
mp-28118,AlSbI6,-0.5146130762499999
mp-1183134,AlSbO3,-2.285782353750001
mp-676861,AlSbO4,-2.5501275333333324
mp-567060,AlSeBr3N,-0.644782031412292
mp-29408,AlSeBr7,-0.61808585484375
mp-649130,AlSeCl7,-1.1887992523793056
mp-1182916,AlSeO10,-0.3837062719661457
mp-556831,AlSeS2N2Cl5,-0.9393934368435226
mp-1021666,AlSi,0.2722243399999993
mp-710380,AlSi2HC6NCl3,0.0933708057478577
mp-1228941,AlSi3AgO8,-2.9675627169230765
mp-1229057,AlSi3O8,-3.0913422458333333
mp-1227997,AlSi3W2,-0.29922895500000024
mp-1228558,AlSi5(CO6)2,-2.3869256631249995
mp-1228164,AlSiAgO4,-2.7018878552380947
mp-1227998,AlSiCN,-0.8630166402824999
mp-24308,AlSiH9C3Cl2O,-0.8901202933294122
mp-643829,AlSiHO4,-2.8651997198028565
mp-1228015,AlSiMo,-0.4075151799999996
mp-1228043,AlSiNi2,-0.5730547612500008
mp-1228041,AlSiNi6,-0.4399888500000007
mp-1183132,AlSiO3,-2.1706477327500004
mp-5168,AlSiP3,-0.3094132122857147
mp-1197294,AlSiPH9C3NCl6,-0.8157497750187659
mp-1228017,AlSiPt6,-0.5333039512499997
mp-862778,AlSiRu2,-0.7082002775000005
mp-1095930,AlSiTc2,2.9098608475
mp-31220,AlSiTe3,-0.2677983580000003
mp-1042285,AlSn(WO4)2,-2.287710893749999
mp-567609,AlSn2P(H3C)8,-0.22591646913952385
mp-1047454,AlSn3F15,-2.8338379206763147
mp-1048499,AlSn3Se2ClO8,-1.724205360363166
mvc-13902,AlSnF5,-3.2891175679928573
mvc-3876,AlSnO3,-2.4518567432500005
mp-1199681,AlSnPH18(C3Cl2)2,-0.5681931020271896
mp-1097296,AlSnRu2,2.7163389862500003
mp-1018166,AlTc2,-0.4164927866666683
mp-1096126,AlTc2Ge,2.83633804625
mp-1097493,AlTc2Mo,3.4763139625
mp-631582,AlTc2Pb,0.5436560024999997
mp-1097542,AlTc2Sb,2.8325018387500007
mp-1097605,AlTc2W,3.668937797500001
mp-1183188,AlTc3,-0.11516550250000004
mp-1041870,AlTe(WO4)2,-2.0813996041666663
mp-573751,AlTeCl7,-1.484044619757778
mp-1205099,AlTeH6C2Br3,-0.5029752843630763
mp-1196941,AlTeH6C2Cl3,-0.7516906958846149
mp-29407,AlTeI7,-0.3869578950000003
mp-752394,AlTeO4,-2.2171805262499995
mp-18733,AlTl(MoO4)2,-2.273777399583333
mp-1228066,AlTl2Cu3Se4,-0.35744461543750033
mp-27758,AlTl2F5,-2.9908546057437504
mp-1182863,AlTl2OF5,-2.4821847174666667
mp-567878,AlTlBr4,-1.1139159916666663
mp-567716,AlTlCl4,-1.8228080630066668
mp-3751,AlTlF4,-3.3010486632933334
mp-1237061,AlTlFe2F2,-0.7971564837300006
mp-607829,AlTlI4,-0.7216759233333333
mp-14105,AlTlO2,-2.443756471875
mp-768539,AlTlO3,-2.2050600952500004
mp-985477,AlTlS2,-1.22392494921875
mp-863762,AlTlSe2,-0.7574513821093749
mp-1228177,AlTlSi3O8,-3.098600043461538
mp-1228209,AlTlSiO4,-2.9164386683333343
mp-1042105,AlV(WO4)2,-2.48169353875
mp-1228006,AlV2,-0.13990908999999974
mp-1025497,AlV2C,-0.5139386946874991
mp-19456,AlV2O4,-2.713130590714286
mp-1096156,AlV2W,4.142373255
mp-1387,AlV3,-0.13038690999999947
mp-1045019,AlV3O6,-2.66735245
mp-1045114,AlV3Se2ClO8,-1.8196742513631683
mp-1045776,AlV4(CuO4)3,-1.8877005757500016
mp-569458,AlV4C3,-0.5031853889062514
mp-1189472,AlV4N3,-1.0340324946424992
mp-1228829,AlV6Ge,-0.23072402937500056
mp-1228831,AlV6Sb,-0.16075372187500034
mp-1228822,AlV6Sn,-0.08750642312500022
mp-1228971,AlV9Au2,-0.08418058416666696
mp-1228974,AlVCo,-0.12752841666666725
mp-1096125,AlVCr2,3.118971395
mp-1228847,AlVCrC,-0.3459912359374995
mvc-13983,AlVF5,-3.4867527044214284
mp-5778,AlVFe2,-0.4238409050000005
mp-1008530,AlVFeCo,-0.39193183250000097
mp-25709,AlVMoO7,-2.507593736375
mp-961650,AlVNi,0.37911948
mp-10899,AlVNi2,-0.3860662149999996
mp-1178549,AlVO3,-2.9595716767500013
mp-18827,AlVO4,-2.810410771944445
mp-862700,AlVOs2,-0.4746911650000012
mp-961668,AlVPt,-0.14109772
mp-1093903,AlVRe2,3.8417268812500014
mp-866001,AlVRu2,-0.6369532525000006
mp-1079892,AlW2C,0.02499905281250037
mp-1228839,AlW3C4,0.1823025856250009
mp-1042107,AlW3O8,-2.2979298587500003
mp-1045980,AlW3Se2ClO8,-1.638136207696499
mp-1228818,AlWC,0.6694207404166667
mp-1228830,AlWC2,0.4706521231249994
mvc-15885,AlWF5,-2.7972265244214287
mp-1046804,AlWO3,-2.34212300275
mp-1182867,AlWO4,-2.6855281366666666
mp-1214951,AlZn10(B4Rh9)2,-0.4576669691441443
mp-1214888,AlZn2Sb(HO)12,-1.6885133140514286
mp-1095717,AlZnAu2,0.7415774637500001
mp-1195007,AlZnB5H16C4(N2O5)2,-1.4133224748969093
mp-1195233,AlZnB5H20C5(NO2)5,-1.280034843912411
mp-1195904,AlZnB5H21C6(NO2)5,-1.2334805742092512
mp-1096171,AlZnCo2,2.22350657375
mp-1228837,AlZnCrS4,-1.264462471607143
mp-1183151,AlZnCu2,-0.14915101374999962
mp-1182859,AlZnCu3Se4,-0.3049058721527776
mp-773079,AlZnH16N(OF)6,-1.791008428223871
mp-23768,AlZnH4O2F5,-2.4398187552253843
mp-862705,AlZnIr2,-0.5866025662499998
mp-1097561,AlZnPd2,1.19533775875
mp-866033,AlZnRh2,-0.7883813062500007
mp-28159,As(BrF2)3,-1.684061106714
mp-623837,As(CN)3,0.5047736523728575
mp-27445,As(IF2)3,-1.7424154517140005
mp-558244,As(IF3)2,-1.930851429682222
mp-1193962,As(NO2)2,-0.6431814503228566
mp-27578,As(S2F3)2,-1.8345363024672727
mp-30934,As(S8I)3,-0.5934222458035718
mp-684626,As12S13,-0.20380853251250072
mp-1229223,As14H6O31,-1.4737151007935292
mp-28005,As2(SO4)3,-1.8028860921875007
mp-684856,As24S25,-0.2357191767665817
mp-1237705,As2C4S2O,0.4870638850694447
mp-557417,As2Cl3OF5,-1.8993584617709087
mp-1198214,As2H2CCl4,-0.7150629993366664
mp-556083,As2H3CF9,-1.872270335188
mp-1229009,As2H5CO6,-1.0802922692392858
mp-1194260,As2H6CO6,-1.1786663251980003
mp-758957,As2HPbF13,-2.453051235975882
mp-15649,As2Ir,-0.4719529683333323
mp-30014,As2Kr3F16,-1.5589973903114285
mp-555434,As2O5,-1.5761547012499986
mp-1182590,As2O9,-0.3383016146590915
mp-2455,As2Os,-0.21998388666666693
mp-540883,As2P2S7,-0.6121867693384739
mp-1202563,As2PHBr3F11,-1.924392179102936
mp-707231,As2PHO6,-1.9118063428262857
mp-557799,As2Pb(XeF6)3,-1.911971420475833
mp-680722,As2Pb14Cl4O17,-1.629276875251081
mp-505465,As2Pb2O5,-1.6543198062499995
mp-608653,As2Pb2S5,-0.6740806730902796
mp-505368,As2Pb3O8,-1.748595225
mp-561299,As2Pb4S6ICl,-0.7922782916167864
mp-31107,As2Pb8O13,-1.6490014561413044
mp-28537,As2PbO4,-1.6602068760714286
mp-20015,As2PbO6,-1.752073715277778
mp-19941,As2PbS4,-0.5985272583928578
mp-20465,As2Pd,-0.3183967741666661
mp-1214686,As2Pd5,-0.3479859414285721
mp-6915,As2PdO6,-1.3876565263888887
mp-2513,As2Pt,-0.5184761108333333
mp-15954,As2Rh,-0.5035428391666663
mp-766,As2Ru,-0.3942771416666666
mp-1228819,As2S,-0.1397632413541666
mp-27717,As2S2F3,-1.5730452302421425
mp-27739,As2S2O9,-1.7988853239903848
mp-541204,As2S3(NF6)2,-1.8976424982225009
mp-27230,As2SO6,-1.7753247557291667
mp-1228838,As2Se,0.08582064713541726
mp-541335,As2Se2S(NF6)2,-1.8269024676468424
mp-541401,As2Se3(NF6)2,-1.7703763286748022
mp-1229221,As2Se3S3(NF3)4,-1.4840482495528644
mp-1229167,As2SeS2,-0.3167261528437507
mp-1077179,As2W,-0.06477571166666725
mp-504532,As2W2O11,-1.8716036220833328
mp-1042755,As2WO7,-1.766085486875
mp-27404,As3(HO2)5,-1.5123461972555556
mp-759553,As3H12C4S5N,-0.3712741058453001
mp-605173,As3H9RhC3(BrO)3,-0.6343473465945457
mp-573080,As3H9RhC3(ClO)3,-0.75405973022091
mp-626378,As3HO6,-1.6073948066120003
mp-540912,As3Ir,-0.4209199112499995
mp-1229056,As3P3Pb10(ClO12)2,-2.0354482625702044
mp-1192209,As3Pb2BrO6,-1.5864083906249995
mp-561268,As3Pb2ClO6,-1.6592894740216664
mp-1214749,As3Pb5BrO12,-1.7158760671428568
mp-566301,As3Pb5ClO12,-1.7676596350361902
mp-510724,As3Pb5ClO9,-1.6409762952505555
mp-1214667,As3Pb5O12F,-1.840176653628095
mp-8182,As3Rh,-0.4338870131250001
mp-1183184,As3W,0.5866145887500007
mp-11696,As3W2,-0.08123059899999988
mp-27594,As4(Pb3S5)3,-0.7447626400334825
mp-1103461,As4BrNO6,-0.8568888366566666
mp-568505,As4C3,0.8729996019642863
mp-782100,As4H24C8S7N2,-0.3503368417794996
mp-1202552,As4H6(CO)3,-0.5062354457324991
mp-1214628,As4HN2(ClO3)2,-0.26964783049333313
mp-1095503,As4INO6,-0.8475964883233331
mp-1105031,As4N2Cl2O7,-0.2596511846686667
mp-1228867,As4PRh10,-0.5196040081428578
mp-653995,As4Pb8Cl6O11,-1.579904235200345
mp-675510,As4Pd5Pb,-0.29013088100000034
mp-706455,As4S11(N6Cl7)2,-0.4334653772899392
mp-27543,As4S3,-0.3960207803125004
mp-502,As4S5,-0.4971522083680561
mp-1194350,As4Se3,-0.07819120868303539
mp-1041770,As4W3O16,-1.7056940178260864
mp-637982,As5Pb3S10,-0.6031472147569453
mp-1197935,As8H2CS10(N10Cl)2,0.03811202672709257
mp-31070,As8S9,-0.4821783930330885
mp-1204830,As9Pb5S18,-0.5890774165039074
mp-646283,As9Pb7S20,-0.6279289817013891
mp-755240,AsAuO3,-1.0881180802500006
mp-1095378,AsAuO4,-1.1783711883333323
mp-28647,AsBr5F6,-1.3986628318449998
mp-1203221,AsBrKr2OF12,-1.3429019600311765
mp-1229049,AsBrOF8,-1.8531355743881817
mp-1214907,AsC18F17,-1.0023444729230553
mp-1190837,AsC2(OF3)2,-1.5637265401945448
mp-555133,AsC2N(OF3)2,-1.85017564496
mp-558687,AsC2S2(OF3)3,-1.8028627682402945
mp-1214666,AsC2S3NF8,-1.5911754121058332
mp-1228966,AsC3N3Cl3F7,-1.2073038336176471
mp-558853,AsC3N3F8,-1.524473676694
mp-1182587,AsC3OF6,-0.8205819063309092
mp-1214763,AsC3S3NF10,-1.60363160042875
mp-1204430,AsC3S3NF11,-1.6812869508635522
mp-1198106,AsC4N2F17,-1.7213523760412492
mp-560424,AsC4S2Cl2O2F13,-1.6903781249006251
mp-555067,AsC4S4N4Cl2O2F5,-1.0389037204881832
mp-1203785,AsC6NF4,0.1950752960716665
mp-1198257,AsCClO2F3,-1.3907243953850004
mp-27274,AsCF3,-1.5013782414640005
mp-1182438,AsCOF4,-1.7544884728228567
mp-554876,AsCS2N2OF5,-1.5032072492779185
mp-555986,AsCS3N2F11,-1.705280506321528
mp-561244,AsCSCl2F9,-1.9598523544673223
mp-561235,AsCSF11,-2.1738385123858928
mp-23444,AsCl2F3,-1.8909825175150001
mp-23280,AsCl3,-1.1598588724449996
mp-29863,AsCl3O,-1.1463334787060002
mp-30106,AsCl5,-0.9299368560500004
mp-27926,AsClF8,-1.9319663182780005
mp-1201143,AsClOF8,-1.8472265187754544
mp-28027,AsF3,-2.4945689133925
mp-8723,AsF5,-2.409819841825
mp-1197381,AsH10C3I,-0.2382146176633332
mp-707477,AsH12C4I3,-0.257970491271999
mp-720294,AsH18N3O7,-1.1277514483982751
mp-690847,AsH2C2NCl2O,-0.43516285193222143
mp-1193289,AsH2SNF10,-1.9599635467054999
mp-27721,AsH3,0.7462332360350001
mp-1238590,AsH3C(OF3)2,-1.9282411970576918
mp-759958,AsH3C(SF2)3,-1.4948339951622018
mp-697077,AsH3CNOF9,-1.8631138293093752
mp-1228846,AsH4NF6,-1.5374474515833327
mp-555110,AsH5C2(OF3)2,-1.6015723345462494
mp-557908,AsH5COF6,-1.6774627964457145
mp-703470,AsH6NO4,-1.2426314349249996
mp-23666,AsH8CN3O4,-0.9931715751382358
mp-1214733,AsH8NO4,-1.0041597558099995
mp-1200478,AsH9C2S(NO)4,-0.8625946177934521
mp-707734,AsHPb4(ClO)4,-1.5934156129757149
mp-1228828,AsHPbO4,-1.6826717133742852
mp-31020,AsI5F6,-1.4587069793449998
mp-555340,AsIF12,-2.043794127448572
mp-1228823,AsIrS,-0.7886062105208337
mp-1228810,AsIrSe,-0.5056655478645832
mp-30010,AsKrF7,-1.7574991434255558
mp-1182477,AsN(OF3)2,-1.9511389147020004
mp-685810,AsN2F7,-1.6299349507089989
mp-637209,AsN9,0.30379199160799997
mp-1078960,AsNF6,-1.263548514315
mp-1102928,AsNO4,-0.2823335403966662
mp-27356,AsO2,-1.6010162545833329
mp-1215144,AsO3,1.7812972346875
mp-1214793,AsOsS,-0.5672408088541658
mp-1228795,AsP,0.07672154142857135
mp-553984,AsP3H18C6(SO)6,-0.7526953095240891
mp-557360,AsPCl3OF5,-2.0809388978748053
mp-1203315,AsPHBr3OF6,-1.8197771764732968
mp-1197012,AsPHCl3OF6,-2.0631726078025268
mp-8140,AsPO4,-2.216711864523809
mp-14367,AsPO5,-2.08353612369898
mp-1228792,AsPPt,-0.5872486498809527
mp-1228758,AsPRh4,-0.6015551795238103
mp-1105627,AsPb2Cl2O3,-1.5009049569087498
mp-1214805,AsPb2S3I,-0.6960984535267853
mp-1183275,AsPb3,0.14576173750000046
mp-560394,AsPbClO2,-1.6417170119020006
mp-29992,AsPbF7,-2.5801574814811112
mp-8073,AsPd2,-0.3723895391666664
mp-1105134,AsPd3,-0.3619261737499997
mp-1228793,AsPd4,-0.1448145310000008
mp-2512,AsPd5,-0.2677400741666662
mp-1228756,AsPd6Pb,-0.22107609437499945
mp-10848,AsPdS,-0.5764055755208339
mp-10849,AsPdSe,-0.3549164586979169
mp-1183320,AsPt3,0.0373868875000003
mp-1228738,AsPtS,-0.6085931938541661
mp-22079,AsRh,-0.4808736962500007
mp-2302,AsRh2,-0.4653380783333329
mp-760507,AsRhO4,-1.4025853966666666
mp-1228745,AsRhS,-0.8359944646875009
mp-1228724,AsRhSe,-0.5694961011979167
mp-15650,AsRu,-0.26257242375
mp-1214786,AsRuS,-0.7233298121875009
mp-1214794,AsRuSe,-0.4152879336979171
mp-542810,AsS,-0.4661769620312501
mp-558466,AsS(BrF2)3,-1.6772007637456818
mp-556705,AsS(ClF2)3,-1.9012509119075
mp-557628,AsS(IF3)2,-1.82401856037025
mp-1204679,AsS(NO4)2,0.09730329447312573
mp-1191613,AsS2,-0.5115241860416665
mp-695196,AsS2N2OF9,-1.408200260656333
mp-556406,AsS2NF10,-2.047192088028929
mp-8500,AsS2NF6,-1.8589388722645
mp-1201063,AsS2XeN2F13,-1.6197984637292104
mp-23112,AsS3(ClF2)3,-1.6748147591621156
mp-560042,AsS3(NF3)2,-1.5724744565906252
mp-1200088,AsS4N3,-0.15730156823624952
mp-558254,AsS4N4F5,-1.0995867751228576
mp-560180,AsS4N5F6,-1.0356608836118744
mp-558583,AsS6N5F6,-1.0425691428286106
mp-637112,AsS7IF6,-1.4871467233718338
mp-1229176,AsSClOF8,-2.1421446321327084
mp-556515,AsSOF9,-2.2533829667518748
mp-560077,AsSXe2(OF3)3,-1.7012233922514066
mp-1203746,AsSXeNF10,-1.7295760593458929
mp-542570,AsSe,-0.09398891679687528
mp-1214921,AsSe(BrF2)3,-1.6684914402939766
mp-554706,AsSe(ClF2)3,-1.8905721032285228
mp-559575,AsSe(IF2)3,-1.6154837384757954
mp-560986,AsSe2S(NF3)2,-1.4534447220333335
mp-23575,AsSe3(ClF2)3,-1.6143102734770194
mp-556763,AsSe3(NF3)2,-1.3329108695984369
mp-23569,AsSe6IF6,-1.2982420527644645
mp-1214996,AsSeS2(NF3)2,-1.51326471228073
mp-561321,AsSeS2N2ClF6,-1.4774574387983666
mp-556154,AsSeS3N5F6,-0.9711971978013292
mp-1047270,AsWO5,-1.7158381276785717
mp-1214911,AsXe(OF2)3,-1.0939015734899995
mp-1182721,AsXe2F9,-1.6366332928369445
mp-672342,AsXe2O4F9,-0.910605470825625
mp-1214817,AsXe2OF10,-1.305732435225
mp-554379,AsXeF11,-1.5653704075453845
mp-27750,AsXeF7,-1.9140639948144442
mp-1228850,AsXeO2F7,-1.330564022575455
mp-990238,Au(OF3)2,-0.9718114177377776
mp-27253,Au2O3,-0.46646882175
mp-947,Au2S,-0.2923078013541674
mp-28095,Au2Se2O7,-0.8769388446306817
mp-559824,Au2Se3O10,-0.9186377425520836
mp-27441,Au2Se4O11,-0.9993629537132356
mp-1183348,Au3Br,0.2999885149999999
mp-1214844,Au3Br8N3,1.0683000030614287
mp-1183201,Au3Cl,0.1608104291850001
mp-17407,Au3F8,-1.3001886808654548
mp-971657,Au3N,0.6901657219049997
mp-1182497,Au3N3(Cl6O)2,-0.3414040076879996
mp-984358,Au3O,0.1891551121875001
mp-505366,AuBr,-0.13666329
mp-1214775,AuBr2,-0.0075594633333331265
mp-27213,AuBr3,-0.15756640062499996
mp-1182317,AuBr3N2,1.086097634206667
mp-1214770,AuBr4N,0.7962913129366669
mp-30159,AuBrF6,-1.3098077846425
mp-1183164,AuC,1.8745169981250005
mp-1192181,AuC4(N2O)2,0.9233108734527272
mp-652180,AuC5(SCl)4,0.35139223478285786
mp-561703,AuCClO,-0.7751241870649999
mp-29196,AuCN,0.25029882295666656
mp-1198967,AuCN3Cl4,0.5760184617855555
mp-556112,AuCS2Cl3,-0.5426529413078575
mp-32780,AuCl,-0.5078424503800001
mp-541656,AuCl2,-0.6416210663399999
mp-27647,AuCl3,-0.698520297445
mp-1214857,AuCl4,-0.5156414686080002
mp-1195965,AuCl4O3,-0.17086708459874966
mp-630336,AuCl5O18,-0.2517460201583337
mp-27265,AuClO,-0.5946848442811112
mp-997018,AuClO2,-0.3034206201899998
mp-942,AuF3,-1.3327800708924995
mp-30103,AuF5,-1.141519511825
mp-27725,AuI,-0.07583729249999971
mp-1214760,AuI2,0.04752197500000014
mp-1214882,AuI3N,0.9563825680239999
mp-1197816,AuI5N,0.8386097666242859
mp-1008610,AuN,1.4979131938099997
mp-1018648,AuN2,0.4213571934133344
mp-560745,AuN5O14,-0.7933544327200011
mp-1228842,AuN7O9,0.508000786005294
mp-1189694,AuNCl3,0.3693954520680002
mp-1214771,AuNCl4,0.3481461457633331
mp-997027,AuO2F,-0.5170904084224999
mp-984598,AuS,-0.11826144953124995
mp-1214753,AuS2,0.3947080889583337
mp-560021,AuS3(O3F)3,-1.7877700816879694
mp-561470,AuS5N5Cl4,-0.2921632310168339
mp-28192,AuSCl5,-0.7656068929089291
mp-556587,AuSCl7,-0.7723809490980559
mp-30003,AuSO4,-1.4366062950520837
mp-2793,AuSe,-0.10095422179687484
mp-27199,AuSeBr,-0.15694686203124952
mp-28372,AuSeCl7,-0.7798803023793055
mp-560549,AuSeClO3,-0.9193190934339583
mp-644828,AuXe2F17,-0.9383687088865
mp-1214780,AuXeF9,-0.9997608087009092
mp-1214830,B(HC)2,0.6143772117186662
mp-1214847,B(HO)2,-1.6176470907813332
mp-23791,B(HO)3,-1.930892312682381
mp-27184,B10(Pb2O7)3,-2.472703686835586
mp-1194548,B10H11C2,-0.21960423593420247
mp-706664,B10H13,-0.1677616226076813
mp-1197561,B10H13Br,-0.19290746880111104
mp-720401,B10H13CSN,-0.18709810428535206
mp-1195877,B10H13Cl,-0.2405884927911112
mp-31003,B10H13I,-0.17555453994694462
mp-1202352,B10H18C2S,-0.22262727414158506
mp-1195030,B10H33C10I,-0.2407282808079003
mp-1182647,B10Pb3O20,-2.441561060353536
mp-1195990,B10Pb4Cl2O19,-2.4522282041981898
mp-1203744,B10Pb4O21,-2.3526101599404763
mp-1199204,B11(Pb2O9)3,-2.1132644876609845
mp-1199984,B11H11C4SI10NF,-0.3492698446996361
mp-1198154,B11H18C4S2NCl,-0.3071309216826575
mp-1205245,B11H2CCl11,-0.8913402466073336