task_id,composition,formation_energy_per_atom
mp-1195309,Ba2GaAsSe5,-1.1861090117187496
mp-1201906,Ba2GaBiS5,-1.6621299414236117
mp-570245,Ba2GaGeN,-0.6612447264759993
mp-1096236,Ba2GaHg,0.9931158675
mp-758662,Ba2GaP4HO14,-2.8458584465768837
mp-1199702,Ba2GaS4,-1.8893151933928576
mp-1203806,Ba2GaSbS5,-1.6515402489236115
mp-1195574,Ba2GaSe4,-1.4275738365178572
mp-1214720,Ba2Gd(CuO2)4,-2.034940506
mp-1189405,Ba2Gd2Co4O11,-2.3153910891447373
mp-1202971,Ba2Gd2Si4O13,-3.5452712133928577
mp-866304,Ba2GdB2ClO6,-3.3109345449244465
mp-8986,Ba2GdC2(O2F)3,-3.2045797150764286
mp-29084,Ba2GdCl7,-2.8557883477820005
mp-1214814,Ba2GdCoCu2O7,-2.2341176514423067
mp-1214767,Ba2GdCu2(HgO4)2,-1.9323277493333333
mp-1214867,Ba2GdCu2HgO7,-2.085387809134615
mp-19813,Ba2GdCu3O7,-2.181266574519232
mp-1190156,Ba2GdGaSe5,-1.649820870885416
mp-1105573,Ba2GdGaTe5,-1.2963178749999995
mp-1078907,Ba2GdMoO6,-3.0849092977499994
mp-19996,Ba2GdNbO6,-3.431212018750001
mp-1207285,Ba2GdReO6,-3.0225834894999997
mp-753668,Ba2GdSbO6,-3.0699435472500007
mp-1205549,Ba2GdTaO6,-3.5582002007500018
mp-1205845,Ba2GdUO6,-3.62637396075
mp-13922,Ba2Ge,-0.4885780249999995
mp-1197017,Ba2Ge(Sb2S5)2,-1.1400205832720598
mp-570803,Ba2Ge(TeSe)2,-1.2156138960267855
mp-18335,Ba2Ge2Se5,-1.1255881897743056
mp-17885,Ba2Ge2Te5,-0.8527413961111113
mp-1228488,Ba2Ge3,-0.4594218069999997
mp-1191488,Ba2Ge4Pd5,-0.6767821177272727
mp-1190188,Ba2Ge5Ir4,-0.5554076272727273
mp-8195,Ba2GeAs2,-0.8917189159999992
mp-780263,Ba2GeO4,-2.8708524945238105
mp-8194,Ba2GeP2,-0.8503380068571431
mp-540805,Ba2GeS4,-1.8132585323214288
mp-11902,Ba2GeSe4,-1.354760656339286
mp-542783,Ba2H14C4O15,-1.7126749898408573
mp-1198374,Ba2H14Cl4O15,-1.3792999717848575
mp-1215145,Ba2H2C4O9,-2.0688011502052936
mp-1195529,Ba2H2Pd(S5O17)2,-2.0241381010278565
mp-1018651,Ba2H3I,-0.9379568609766666
mp-1193896,Ba2H4Pd,-0.6009697102828575
mp-697044,Ba2H6Os,-0.620531936302222
mp-643253,Ba2H6Pt,-0.641944876857778
mp-697038,Ba2H6Ru,-0.6325365451911114
mp-1200998,Ba2H8PtO8,-1.7506451275768418
mp-1214688,Ba2HBr2,-0.5797405717239993
mp-1214876,Ba2HCl2,-0.954436735028
mp-1214818,Ba2HI2,-0.364447237724
mp-1198408,Ba2HRu3O10,-1.9424394746012488
mp-756180,Ba2Hf7O16,-3.8999842797999986
mp-754363,Ba2HfO4,-3.5511261757142853
mp-9321,Ba2HfS4,-2.3043278116071444
mp-1207009,Ba2HfUO6,-3.6187217982500015
mp-8094,Ba2Hg,-0.37555199666666655
mp-557269,Ba2Hg3(PdO2)7,-1.2075360599038458
mp-1095904,Ba2HgAu,0.7072537675000001
mp-1097574,Ba2HgGe,0.91840333125
mp-866106,Ba2HgPb,-0.5910742600000001
mp-1096200,Ba2HgPd,0.7759384899999997
mp-18008,Ba2HgS3,-1.7831588695312497
mp-1096502,Ba2HgSb,0.5177951462500003
mp-616166,Ba2Ho(CuO2)3,-2.258449462708334
mp-6205,Ba2Ho(CuO2)4,-2.056892172333333
mp-684935,Ba2Ho2Al3Si5N11O3,-1.3750947149973065
mp-604411,Ba2Ho2Co4O11,-2.3473021473026314
mp-1214783,Ba2Ho2CuPtO8,-2.697069598214285
mp-1228474,Ba2Ho2Fe(CoO4)3,-2.2951329542499987
mp-558195,Ba2HoB2ClO6,-3.342232633674445
mp-1214684,Ba2HoCl7,-2.8542402175320007
mp-1214661,Ba2HoCoCu2O7,-2.25520762875
mp-6616,Ba2HoCu3O7,-2.203797549519232
mp-1205837,Ba2HoMoO6,-3.0938329422500006
mp-12641,Ba2HoNbO6,-3.4849461552500003
mp-13933,Ba2HoReO6,-3.0686500340000014
mp-6609,Ba2HoRuO6,-2.87081823675
mp-6687,Ba2HoSbO6,-3.11698338075
mp-13000,Ba2HoTaO6,-3.6088612982500017
mp-1205585,Ba2HoUO6,-3.6782502122500014
mp-1206496,Ba2I2F,-1.4822728492380002
mp-551835,Ba2I2O,-2.33028668325
mp-1228367,Ba2IBrF2,-3.13617726373
mp-1102396,Ba2In,-0.2970515861111114
mp-684013,Ba2In13Ir4,-0.2879046675438604
mp-1215000,Ba2In2(PO4)3,-2.7593881909523823
mp-20546,Ba2In2O5,-2.4372841897685182
mp-1194952,Ba2In2Si3SO10,-2.9128240876793985
mp-1228509,Ba2In3Au,-0.512947505
mp-1228393,Ba2InBiO6,-2.297464478583334
mp-864638,Ba2InBiS5,-1.6137458598495376
mp-1105202,Ba2InBiSe5,-1.2131418662557871
mp-555212,Ba2InBrO3,-2.4971247631547606
mp-558243,Ba2InClO3,-2.654344899334762
mp-1228360,Ba2InCuO4,-2.2368186110416666
mp-1106089,Ba2InGaO5,-2.583594216620371
mp-1183329,Ba2InHg,-0.4628698408333334
mp-638553,Ba2InIrO6,-2.1988717400833337
mp-19956,Ba2InO3F,-2.881379728324762
mp-1207040,Ba2InOsO6,-2.3366156535833342
mp-1205875,Ba2InReO6,-2.506255100833333
mp-616601,Ba2InRuO6,-2.2962323292500004
mp-1206536,Ba2InSbO6,-2.550738353583333
mp-1203298,Ba2InSbTe5,-0.9301835039814814
mp-755117,Ba2IrO4,-2.263758807857143
mp-1228413,Ba2La(CuO2)3,-2.2287659822916672
mp-1228521,Ba2La(FeO3)3,-2.486356740750001
mp-706229,Ba2La2Fe2Cu2O11,-2.3709110001973683
mp-695403,Ba2La2MgTi3O12,-3.5806594585833342
mp-566048,Ba2La2Mn(WO6)2,-2.9434875039978934
mp-1214651,Ba2La2Mn4O11,-2.8014908314521048
mp-1228484,Ba2La2Ni(WO6)2,-2.838759897631578
mp-768263,Ba2La2O5,-3.3732616268055566
mp-1214655,Ba2La2Ti2Cu2O11,-3.070389086162282
mp-1214673,Ba2La2TlCu2O9,-2.415210809140625
mp-41236,Ba2La2Zn(WO6)2,-2.859389836315789
mp-686674,Ba2La3Si3O12F,-3.6891157651757154
mp-705476,Ba2La3Ti2Cr3O15,-3.2704666232833337
mp-1214803,Ba2La3Ti2Nb2O15,-3.53968802967014
mp-1228754,Ba2La3Ti3NbO15,-3.6196444068229177
mp-743694,Ba2La4Mn5SnO18,-2.8263018524099985
mp-1228650,Ba2La4Ti5O18,-3.6375409167528745
mp-744094,Ba2La6Mg4Ti3WO24,-3.2840887283749995
mp-553874,Ba2LaAg5S6,-1.3458783588839285
mp-1078409,Ba2LaBiO6,-2.80039693025
mp-18111,Ba2LaC3O9F,-2.872776881168125
mp-772955,Ba2LaCl7,-2.9001514105320005
mp-1214652,Ba2LaCoCu2O7,-2.234502188365384
mp-1214663,Ba2LaCu2HgO7,-2.08309122375
mp-622210,Ba2LaCu3O7,-2.178291526826923
mp-505315,Ba2LaCu3O8,-2.055645765
mp-772141,Ba2LaI7,-1.6734746610000002
mp-15889,Ba2LaIrO6,-2.7210941767500003
mp-1228437,Ba2LaMn2O7,-2.792412720055833
mp-1214654,Ba2LaNb(CuO4)2,-2.7077121092857146
mp-1228649,Ba2LaNb5O15,-3.2656936273369546
mp-553281,Ba2LaNbO6,-3.4009061247500005
mp-20958,Ba2LaReO6,-2.9761748155000007
mp-12911,Ba2LaRuO6,-2.792096283250001
mp-551269,Ba2LaSbO6,-3.0457228032500017
mp-615682,Ba2LaTa(CuO4)2,-2.793567073571428
mp-13055,Ba2LaTaO6,-3.52190442175
mp-1228434,Ba2LaTlCu2O7,-2.2021797079807697
mp-1205700,Ba2LaUO6,-3.57629264075
mp-6075,Ba2Li(BO2)5,-3.0461924806018508
mp-18713,Ba2Li(CuO2)3,-1.829172746875
mp-555958,Ba2Li3(PO3)7,-2.8727886952651507
mp-1228762,Ba2Li3Ho3(WO4)8,-2.627602691979165
mp-1228731,Ba2Li3La3(MoO4)8,-2.6199346397916656
mp-567658,Ba2Li3NbN4,-0.9318153054519988
mp-573677,Ba2Li3TaN4,-0.996081577452
mp-1228739,Ba2Li3Y3(MoO4)8,-2.6033412214583334
mp-1228802,Ba2Li3Y3(WO4)8,-2.6221758427083324
mp-1197768,Ba2LiAl(CN2)4,-0.8831909879087485
mp-1200459,Ba2LiB10O19,-2.768229921419272
mp-1095977,Ba2LiCd,1.1614307512500002
mp-8924,Ba2LiFe2N3,-0.5947697946424997
mp-17491,Ba2LiGe3,-0.5630754900000005
mp-1096603,Ba2LiHg,1.0232774400000002
mp-1207120,Ba2LiIO6,-2.2492197167500003
mp-1093728,Ba2LiIn,1.1781026666666667
mp-1096727,Ba2LiMg,1.34453207
mp-605860,Ba2LiN,-0.3676941515325001
mp-10584,Ba2LiOsO6,-2.45763197625
mp-10555,Ba2LiReN4,-0.9743395283774996
mp-6270,Ba2LiReO6,-2.7574179665000003
mp-15521,Ba2LiSi3,-0.4280208316666663
mp-1214633,Ba2LiTeO6,-2.39715536475
mp-767384,Ba2LiTi11O24,-3.473324461929825
mp-1096688,Ba2LiTl,1.0208757862499998
mp-1214701,Ba2LiUO6,-3.15261728425
mp-763824,Ba2LiVP2O9,-2.968062235369048
mp-21868,Ba2Lu(CuO2)3,-2.259163425625
mp-1214855,Ba2Lu2CuPtO8,-2.718343560357144
mp-1228639,Ba2LuB2ClO6,-3.3517027465911107
mp-1078394,Ba2LuBiO6,-2.87793648325
mp-20324,Ba2LuCu3O7,-2.207750772211539
mp-22594,Ba2LuIrO6,-2.8263771017500003
mp-1205836,Ba2LuMoO6,-3.1270036987500007
mp-12644,Ba2LuNbO6,-3.5204596297500004
mp-1214813,Ba2LuReO6,-3.09648684
mp-6145,Ba2LuRuO6,-2.9003038312500014
mp-1078185,Ba2LuSbO6,-3.1431041992500015
mp-1079705,Ba2LuTaO6,-3.64255646775
mp-1206047,Ba2LuUO6,-3.7134873427500015
mp-1019528,Ba2Mg(BO2)6,-3.067209885476192
mp-9259,Ba2Mg(BO3)2,-3.1427603600757568
mp-1190166,Ba2Mg(GeIr)4,-0.5964979159090908
mp-14558,Ba2Mg(PO4)2,-3.24859592456044
mp-1813,Ba2Mg17,-0.05238935105263153
mp-1046498,Ba2Mg2Mn3Tl2O10,-2.1161301871252642
mp-1214672,Ba2Mg2MnF10,-3.802140103857333
mp-1046139,Ba2Mg2Ti3Tl2O10,-2.641389234342105
mp-1046491,Ba2Mg2Tl2Co3O10,-1.8589524148684209
mvc-3041,Ba2Mg2Tl2Cr3O10,-2.1435222780263157
mp-1046126,Ba2Mg2Tl2Cu3O10,-1.7885042048684208
mp-1046553,Ba2Mg2Tl2Fe3O10,-1.9860446264473688
mp-1046522,Ba2Mg2Tl2Ni3O10,-1.7121963048684212
mp-1046198,Ba2Mg2Tl2Sn3O10,-2.0487087177631578
mp-1046499,Ba2Mg2Tl2W3O10,-1.8348075964473682
mp-541162,Ba2Mg3F10,-3.97448912146
mp-733604,Ba2Mg3H10,-0.4507692230799999
mp-1047595,Ba2Mg3Mn4Tl2O12,-2.0840263582104352
mp-29564,Ba2Mg3Si4,-0.3472607872222224
mvc-10499,Ba2Mg3Ti4Tl2O12,-2.6334289618115947
mp-1046344,Ba2Mg3Tl2(CoO3)4,-1.7558562554347823
mvc-10565,Ba2Mg3Tl2(CuO3)4,-1.7633597745652174
mvc-28,Ba2Mg3Tl2(FeO3)4,-1.96423295847826
mvc-132,Ba2Mg3Tl2(NiO3)4,-1.5851901084782614
mvc-10576,Ba2Mg3Tl2(SnO3)4,-1.8803629689130432
mvc-129,Ba2Mg3Tl2(WO3)4,-1.5980556632608696
mp-1096276,Ba2MgCd,1.24427764125
mvc-2321,Ba2MgCo2CuF14,-3.012008749583
mp-1045870,Ba2MgCr2CuF14,-3.3277179935829992
mp-1045463,Ba2MgCu3F14,-2.807219385333
mp-1045802,Ba2MgCuAg2F14,-2.629263170083
mvc-1817,Ba2MgCuBi2F14,-3.197099708333
mp-1045901,Ba2MgCuMo2F14,-3.2344701213330005
mvc-2372,Ba2MgCuNi2F14,-2.828551701583
mp-1045695,Ba2MgCuSb2F14,-3.162040075083
mvc-2080,Ba2MgCuSn2F14,-3.142667506583
mp-1045836,Ba2MgFe2CuF14,-3.219853244583
mp-1190545,Ba2MgGe2O7,-2.8073762594791667
mp-643370,Ba2MgH6,-0.5316821346355552
mp-1097615,Ba2MgHg,1.1119718825
mp-1183274,Ba2MgIn,-0.2442145483333333
mp-1045910,Ba2MgMn2CuF14,-3.220295849429
mp-1205825,Ba2MgMoO6,-2.8818478457499994
mp-779511,Ba2MgO3,-2.8829614485416664
mp-1206133,Ba2MgOsO6,-2.6192337872500007
mp-22441,Ba2MgReO6,-2.8545936335000013
mp-9338,Ba2MgSi2O7,-3.3805697161458337
mvc-2079,Ba2MgTi2CuF14,-3.603682782499667
mp-1183219,Ba2MgTl,-0.2431078687499999
mp-13811,Ba2MgUO6,-3.4735299857499995
mvc-2946,Ba2MgV2CuF14,-3.3910894530830005
mp-18986,Ba2MgWO6,-2.962209276750001
mp-1097603,Ba2MgZn,1.33948557875
mp-567087,Ba2Mn(AsO4)2,-2.4740335123815376
mp-18990,Ba2Mn(BO2)6,-2.9688058455219046
mp-1044811,Ba2Mn2AlF11,-3.6488279922922913
mp-1048457,Ba2Mn2AlTlO7,-2.186802950436154
mp-561597,Ba2Mn2As2O,-1.2386754761671437
mp-566276,Ba2Mn2Bi2O,-1.046172800452858
mp-1214624,Ba2Mn2ClF7,-3.4286877402925002
mp-1045769,Ba2Mn2CuF14,-2.976081588346315
mp-1048841,Ba2Mn2F11,-3.231133456445111
mp-1099904,Ba2Mn2O5,-2.4667762859077778
mp-19213,Ba2Mn2Sb2O,-1.166816581167142
mp-1080029,Ba2Mn2Se2OF2,-2.4378433436375
mp-580450,Ba2Mn2Si2O9,-2.9519144642113333
mp-1048461,Ba2Mn2TlO7,-1.9530601488058328
mp-1045867,Ba2Mn2ZnCuF14,-3.0381653021790007
mp-18787,Ba2Mn3(SbO)2,-1.2959913417088889
mp-566331,Ba2Mn3(SeO3)6,-1.8529986026531904
mp-1048319,Ba2Mn3AlO7,-2.2874713808946154
mp-1048103,Ba2Mn3AlO8,-2.3560304023485705
mp-1048511,Ba2Mn3O7,-2.128360996802499
mp-1048172,Ba2Mn3O8,-2.0571138956061548
mvc-3169,Ba2Mn3Tl2O10,-1.8721041150223527
mp-1046513,Ba2Mn3Tl2Zn2O10,-1.8590687613357888
mp-1048574,Ba2Mn4Tl2Zn3O12,-1.724743987993043
mp-1214669,Ba2Mn5O10,-2.185793210429411
mp-1214777,Ba2MnAl2CoF14,-3.642732474881
mp-1214705,Ba2MnAl2CuF14,-3.5601119571310003
mp-1214631,Ba2MnCdFe2F14,-3.2214570298810017
mp-1228743,Ba2MnCu(P2O7)2,-2.7886901471377925
mp-1192147,Ba2MnGe2O7,-2.631038375392501
mp-25013,Ba2MnMoO6,-2.676802579846001
mp-1228414,Ba2MnNbO6,-2.9554606038459994
mp-565327,Ba2MnNiClF7,-3.2259125356291665
mp-540673,Ba2MnO3,-2.5763454853683334
mp-769951,Ba2MnO4,-2.5871216637085723
mp-1214579,Ba2MnP2F,-0.2373760235726188
mp-31899,Ba2MnReO6,-2.654966095596
mp-1228678,Ba2MnRuO6,-2.3291078490126664
mp-18445,Ba2MnS3,-1.9463212149479177
mp-18513,Ba2MnSe3,-1.538106102213541
mp-566258,Ba2MnSi2ClO7,-3.0846061663823074
mp-16905,Ba2MnTe3,-1.2482755250000004
mp-18992,Ba2MnTeO6,-2.4935266428459997
mp-1228544,Ba2MnTeSe2,-1.447234599947916
mp-19085,Ba2MnWO6,-2.7543947858460003
mp-19045,Ba2MnZn2(AsO)2,-1.4822336137177774
mp-1197677,Ba2Mo15Se19,-0.6928190457855905
mp-1040864,Ba2Mo2F11,-3.272725135872667
mp-1214599,Ba2MoO3F4,-3.3177655748509998
mp-1892,Ba2N,-0.5248397341266658
mp-1018099,Ba2NCl,-1.5421901689100004
mp-1018096,Ba2NF,-1.9178295896425
mp-1078941,Ba2NO6,-1.6345961433200002
mp-6496,Ba2Na(CuO2)3,-1.7957942464583332
mp-1228583,Ba2Na(FeAs)6,-0.44773209433333344
mp-19397,Ba2Na(NiO2)3,-1.594458323541667
mp-1228433,Ba2Na(SnAs)6,-0.4635974716666662
mp-697960,Ba2Na2B10H2O19,-2.816677305075905
mp-752395,Ba2Na2O3,-2.162059945178572
mp-1204071,Ba2Na2SrAl4F20,-3.9108476018551728
mp-1229309,Ba2Na2Zr2Si6O23,-2.7225972528928573
mp-720079,Ba2Na7Ti16Bi7O48,-2.9253681703333334
mp-1097453,Ba2NaCd,0.9901361675
mp-1214950,Ba2NaCe2Ti2FeSi8HO27,-3.1986017304705303
mp-1191092,Ba2NaCu3S5,-1.2953225209375014
mp-1091394,Ba2NaIO6,-2.22497035725
mp-1183273,Ba2NaIn,-0.2120913220833333
mp-1228472,Ba2NaLaTi4O12,-3.4633109273333327
mp-1095990,Ba2NaLi,1.12440289125
mp-1096498,Ba2NaMg,1.16114201125
mp-1228567,Ba2NaMn3F11,-3.4036331541747065
mp-1199624,Ba2NaNb5O15,-3.138917042826088
mp-1019519,Ba2NaO,-1.4629952490625002
mp-22442,Ba2NaOsO6,-2.40481318975
mp-1095846,Ba2NaPb,0.90558705625
mp-6798,Ba2NaReO6,-2.7067724840000005
mp-1096626,Ba2NaSn,0.8987809474999997
mp-1228553,Ba2NaSr2(SbO4)3,-2.5554024755000007
mp-1215061,Ba2NaTi2MnRe2Si8HO26F,-2.8145683625364413
mp-1093929,Ba2NaTl,0.9371610375
mp-1214646,Ba2NaUO6,-3.0941709522500003
mp-28675,Ba2Nb15O32,-3.0039388134693867
mp-557108,Ba2Nb2TeO10,-2.8741784700000013
mp-19796,Ba2Nb5O9,-2.887083828828125
mp-16998,Ba2Nb6Te2O21,-2.86701121375
mp-753689,Ba2Nb8O11,-2.597952509226188
mp-1147642,Ba2NbBiO6,-2.84927770825
mp-1228382,Ba2NbCoO6,-2.73266756575
mp-619488,Ba2NbCrO6,-3.064105012
mp-1228495,Ba2NbCu2Pb2ClO8,-2.1874130927037503
mp-1021504,Ba2NbFeO6,-2.956106246750001
mp-20620,Ba2NbInO6,-2.9744508380833343
mp-17024,Ba2NbN3,-1.1661324466066665
mp-34023,Ba2NbO,0.3100238446874997
mp-1228528,Ba2NbP2O9F,-3.250945603781715
mp-1205833,Ba2NbRhO6,-2.7462101807500003
mp-1078969,Ba2NbVO6,-3.0855583347500004
mp-614981,Ba2Nd(CuO2)3,-2.22288933125
mp-1202625,Ba2Nd2Al3(B4O9)3,-2.90019304866848
mp-1228483,Ba2Nd2Co4O11,-2.355576336776315
mp-1228516,Ba2Nd2Fe(CoO4)3,-2.3261540825
mp-1228604,Ba2Nd2Fe3CoO12,-2.4362383720000005
mp-704634,Ba2Nd2Fe4O11,-2.6507771746710533
mp-561462,Ba2Nd2Si4O13,-3.528953671011906
mp-557043,Ba2Nd2Ti2Cu2O11,-3.0384155280043865
mp-567918,Ba2Nd7Si11N23,-1.4554962421451156
mp-555284,Ba2NdAlO5,-3.3613807093055548
mp-546321,Ba2NdBiO6,-2.7783155850000005
mp-1214600,Ba2NdCoCu2O7,-2.2208232758653845
mp-1214587,Ba2NdCu2HgO7,-2.0711551335576925
mp-22719,Ba2NdCu3O7,-2.1676710997115385
mp-1214598,Ba2NdDyTi2Cu2O11,-3.055834523399122
mp-1205363,Ba2NdGaSe5,-1.6424796378298612
mp-1190093,Ba2NdInSe5,-1.6212024482002316
mp-1205400,Ba2NdInTe5,-1.3064663517592592
mp-1079169,Ba2NdIrO6,-2.7040078385000004
mp-19389,Ba2NdMoO6,-3.0375204944999994
mp-10062,Ba2NdNb(CuO4)2,-2.6883511119642853
mp-6167,Ba2NdNbO6,-3.3888531755000004
mp-1205556,Ba2NdReO6,-2.9675573202500005
mp-6200,Ba2NdRuO6,-2.7749250485000005
mp-6122,Ba2NdSbO6,-3.028838458
mp-1205600,Ba2NdTaO6,-3.5104584635000013
mp-1228402,Ba2NdTlCu2O7,-2.1883760654807696
mp-25098,Ba2Ni(NO2)6,0.36373481717714296
mp-565891,Ba2Ni2ClF7,-3.017956059715833
mp-1041199,Ba2Ni2F11,-2.585124430539333
mp-553999,Ba2Ni3F10,-2.9556753794599997
mp-1048554,Ba2Ni3O7,-1.1952272898958338
mvc-13721,Ba2Ni3O8,-1.140104816923078
mp-1095498,Ba2Ni5Ge4,-0.4499298754545448
mp-560626,Ba2Ni7F18,-2.5958353737562962
mp-556041,Ba2NiF6,-3.4766172041266667
mp-561738,Ba2NiMoO6,-2.4337481857499994
mp-1147774,Ba2NiRuO6,-1.966575109
mp-19011,Ba2NiTeO6,-2.2308098342500005
mp-504723,Ba2NiWO6,-2.508088385750001
mp-1147775,Ba2OsO4,-2.3588774928571428
mp-1019530,Ba2P2O7,-3.2391998143668834
mp-28894,Ba2P3Pd,-0.9108584210714288
mp-772748,Ba2P6O17,-2.8638314417642863
mp-1105535,Ba2P7Br,-0.778940575
mp-569613,Ba2P7Cl,-0.8737375228260007
mp-1188687,Ba2P7I,-0.7181870474999996
mp-1093925,Ba2PAu,0.38561944196428577
mp-27869,Ba2PCl,-1.8110864963507136
mp-1205080,Ba2PIO4,-3.0719498393303573
mp-685613,Ba2PPd2,-0.6971369044285722
mp-21246,Ba2Pb,-0.5385643783333336
mp-1229061,Ba2Pb(SO4)3,-2.5648356567881945
mp-20098,Ba2PbO4,-2.381237316428571
mp-1103028,Ba2Pd,-0.3557589325
mp-6123,Ba2Pd(OF)2,-2.8341380464114287
mp-984876,Ba2Pd2O5,-1.7809326595833332
mp-1093847,Ba2PdAu,0.6654020974999999
mp-29794,Ba2PdF6,-3.309405461348889
mp-29352,Ba2PdO3,-2.289411622291667
mp-1093973,Ba2PdPt,0.6707596325000003
mp-1214585,Ba2Pr(CuO2)3,-2.205867299791667
mp-6779,Ba2Pr(CuO2)4,-2.0188770346666662
mp-1228571,Ba2Pr2Co4O11,-2.344300088092105
mp-1229013,Ba2Pr3(CoO3)5,-2.31110560135
mp-1214573,Ba2PrBiO6,-2.7612066632500003
mp-1214590,Ba2PrCoCu2O7,-2.2109739283653846
mp-20936,Ba2PrCu3O7,-2.157653162211539
mp-614964,Ba2PrCu3O8,-2.0346495828571416
mp-676002,Ba2PrF7,-4.237099130333
mp-6135,Ba2PrIrO6,-2.683555514750001
mp-1228503,Ba2PrNb(CuO4)2,-2.685593688571428
mp-10344,Ba2PrNbO6,-3.3697211872500015
mp-1228494,Ba2PrPbO6,-2.57410947475
mp-9319,Ba2PrPtO6,-2.5745442087500003
mp-6183,Ba2PrRuO6,-2.755401168250001
mp-6692,Ba2PrSbO6,-3.0107057862500013
mp-1228394,Ba2PrSnO6,-2.8160539822500006
mp-1205686,Ba2PrTaO6,-3.4908155307499995
mp-675690,Ba2PtAu,-0.7308237645833332
mp-1205598,Ba2PuMnO6,-3.0494443805334996
mp-1205514,Ba2PuTaO6,-3.3887103754375003
mp-1206179,Ba2PuTiO6,-3.4451108061041658
mp-1207069,Ba2PuZnO6,-2.9418210399374995
mp-14406,Ba2Re6S11,-1.2677791797203946
mp-32306,Ba2ReNiO6,-2.392751266500001
mp-505390,Ba2ReO5,-2.7573141014062497
mp-559442,Ba2Ru7O18,-1.7652215787962977
mp-1025237,Ba2RuO4,-2.4010265871428564
mp-1228621,Ba2S2O3F2,-2.8089285826949992
mp-28978,Ba2S3,-2.0170282874375003
mp-9908,Ba2Sb,-0.8546922933333333
mp-1044608,Ba2Sb2F11,-3.2187379840948886
mp-765493,Ba2Sb2O5,-2.5023363040277777
mp-752404,Ba2Sb2O7,-2.478582036704545
mp-16922,Ba2Sb3,-0.8458529290000001
mp-1048150,Ba2Sb3O7,-2.1519897694791674
mp-1042189,Ba2Sb3O8,-2.266256007307692
mp-554481,Ba2Sb4P2O17,-2.4707361496214286
mp-862631,Ba2SbAu,-0.9340821462500002
mp-1093939,Ba2SbBr,-0.2959879587500001
mp-1097360,Ba2SbI,-0.17083670875
mp-558688,Ba2Sc2B4O11,-3.3322228205482483
mp-755950,Ba2Sc2O5,-3.5207011356944435
mp-1228598,Ba2ScAlO5,-3.3849194132870366
mp-573888,Ba2ScCl7,-2.771438396532001
mp-863842,Ba2ScFeAsO3,-2.486728749843749
mp-10302,Ba2ScIrO6,-2.790170904250001
mp-1206644,Ba2ScNbO6,-3.4908034927499996
mp-1228342,Ba2ScO3F,-3.602362798562858
mp-1205674,Ba2ScOsO6,-2.8970260482500008
mp-1206861,Ba2ScReO6,-3.069115030500001
mp-20709,Ba2ScSbO6,-0.8009705782500006
mp-1228409,Ba2ScTi2BiO9,-3.1897103953055552
mp-1206763,Ba2ScUO6,-3.6855310747499983
mp-9905,Ba2Si,-0.30969547583333323
mp-9867,Ba2Si3Ag,-0.43550709958333417
mp-1228346,Ba2Si3Au,-0.4379406066666676
mp-1228626,Ba2Si3Ge5O18,-2.721577947053572
mp-29819,Ba2Si3Ni,-0.4725218816666671
mp-29222,Ba2Si3O8,-3.393339485384616
mp-9711,Ba2Si5N8,-1.3523678252693323
mp-17612,Ba2SiO4,-3.3757884835714287
mp-5838,Ba2SiS4,-1.9918286801785725
mp-14447,Ba2SiSe4,-1.4563022099107141
mp-14448,Ba2SiTe4,-1.0615143842857135
mp-622576,Ba2Sm(CuO2)3,-2.2374657516666674
mp-1214577,Ba2Sm(CuO2)4,-2.0361981154999995
mp-704632,Ba2Sm2Fe4O11,-2.6513957207236842
mp-1214615,Ba2Sm2Ti2Cu2O11,-3.039389162741228
mp-1214802,Ba2Sm3Si3SeO12,-3.380220028623512
mp-1214586,Ba2SmCoCu2O7,-2.2345948531730766
mp-21451,Ba2SmCu3O7,-2.1815273377884616
mp-1189376,Ba2SmGaSe5,-1.6460513911631949
mp-1189729,Ba2SmGaTe5,-1.2938489569444451
mp-1188304,Ba2SmInSe5,-1.6245944354224544
mp-1095110,Ba2SmMoO6,-3.064385097000001
mp-1228654,Ba2SmNb4FeO15,-3.125879020489129
mp-22184,Ba2SmNbO6,-3.410587157000001
mp-1080470,Ba2SmOsO6,-2.8413772984999994
mp-13929,Ba2SmReO6,-3.00128997375
mp-6037,Ba2SmSbO6,-3.0561169375
mp-1207130,Ba2SmUO6,-3.605502633999999
mp-1981,Ba2Sn,-0.6051876716666668
mp-1044595,Ba2Sn2F11,-3.2696735594282225
mp-1048188,Ba2Sn3O7,-2.193463311979168
mp-867912,Ba2SnHg,-0.63258814375
mp-1182572,Ba2SnO16,-0.6638181881578946
mp-3359,Ba2SnO4,-2.7388915385714294
mp-17918,Ba2SnS3F2,-2.550454423383438
mp-541832,Ba2SnS4,-1.797880098750001
mp-17805,Ba2SnSe3F2,-2.2573207541451565
mp-1201423,Ba2SnSe4O5,-1.4328846635937502
mp-583630,Ba2SnTe5,-0.9723583090625004
mp-1229074,Ba2Sr(IrO3)3,-1.96819861525
mp-1228498,Ba2Sr(PO4)2,-3.3107897118681318
mp-1228764,Ba2Sr(ZrSe3)3,-1.6241111763229166
mp-1228440,Ba2Sr2CaTi5O15,-3.5222222559833334
mp-1099763,Ba2Sr2Co(CuO4)3,-1.7702700459999996