task_id,composition,formation_energy_per_atom
mp-650137,Cs4Re6Se13,-0.6674212926759265
mp-679984,Cs4Ru2Cl10O,-1.6983927121280935
mp-642535,Cs4Sb14S23,-0.8213309812991485
mp-553374,Cs4Sb2O5,-1.8176466546434165
mp-568135,Cs4Sc6CCl13,-2.1808938087898992
mp-1019713,Cs4Si3O8,-2.809583959821839
mp-771255,Cs4SiO4,-2.220591900814176
mp-29834,Cs4SiSe4,-1.0884420219947322
mp-574224,Cs4SiTe4,-0.8621895185919541
mp-1226308,Cs4Sn21Hg2,-0.1865944594380588
mp-2496,Cs4Sn23,-0.16916714110472506
mp-510696,Cs4Sn2Au7,-0.36392063806366026
mp-505014,Cs4Sn2Te7,-0.6724015830636603
mp-17213,Cs4SnO4,-1.761066766369732
mp-1181839,Cs4Sr(SnSe3)3,-0.965936615715961
mp-1203903,Cs4Sr3(PO3)12,-2.7842146634643985
mp-14578,Cs4Ta2S11,-1.3877452362950056
mp-579058,Cs4Tc6S13,-1.1968669966365255
mp-1200603,Cs4Te(PO6)3,-1.635139636298314
mp-1202488,Cs4TeSe15,-0.4508168429366918
mp-680198,Cs4Th2P5Se17,-0.8167288989869869
mp-542011,Cs4Ti3S14,-1.464955078890599
mp-1192166,Cs4Tl2O,-0.5642442918206075
mp-650007,Cs4TlSbCl12,-1.7263522327193104
mp-1198094,Cs4U(Ge2O5)4,-2.331353265752349
mp-689817,Cs4U2V2O13,-2.918668683384648
mp-704952,Cs4U3Mo3O20,-2.8122304596609187
mp-1192638,Cs4U3Si4O17,-3.269125862359913
mp-4393,Cs4U5O17,-3.3513907057145227
mp-573096,Cs4UC3O11,-2.468013722622504
mp-636464,Cs4V2S4O3,-1.7569356705636603
mp-17951,Cs4Zn3F10,-2.821712497160447
mp-1019612,Cs4ZnO3,-1.4299475929471988
mp-705889,Cs4Zr3Mn(PO4)6,-3.027873276411704
mp-768674,Cs4Zr3Se14,-1.0555720054828617
mp-667336,Cs4Zr3Te16,-0.7413458810794605
mp-1203593,Cs4Zr6BBr17,-1.5604577418390804
mp-28543,Cs4ZrO4,-2.2908098030363977
mp-581775,Cs5(KPb6)3,-0.17631430653978694
mp-683972,Cs5Ag4C8IN8,-0.2313102029515816
mp-1199840,Cs5As(PSe3)4,-0.6318509383059507
mp-1197848,Cs5As5Se9,-0.6521449625462228
mp-644925,Cs5Bi(MoO4)4,-2.1976054302320938
mp-566800,Cs5CaNi4F15,-2.7573328080553803
mp-583424,Cs5CeCu2(NO2)12,-1.162971748854421
mp-704975,Cs5CeNi2(NO2)12,-1.1739209595362377
mp-1226391,Cs5CoAgCl8,-1.8286679491409656
mp-1201412,Cs5FeO4,-1.5151503298534486
mp-1193337,Cs5Ga3Se7,-1.0347000210793822
mp-616141,Cs5GeAs3,-0.37843056039272027
mp-542239,Cs5Hg19,-0.21988015837643685
mp-582182,Cs5In3As4,-0.4191402110237069
mp-1203906,Cs5Na(W2N5)2,-0.683140077241724
mp-556239,Cs5Nb2S4Br9,-1.4667001988642243
mp-621112,Cs5Nb2S4Cl9,-1.9071685558312248
mp-1228296,Cs5Re6S8Cl7,-1.5257503940905568
mp-628742,Cs5Sb8,-0.3524382108488065
mp-554842,Cs5Si3AgO9,-2.518477894293584
mp-616140,Cs5SiAs3,-0.3951730990038319
mp-616135,Cs5SiP3,-0.3444543094403396
mp-1182756,Cs5Tc6S8Br7,-1.3175142795590191
mp-1188281,Cs5Te3,-0.9549802145043104
mp-682548,Cs5Te3H4NCl18,-1.4947461769862735
mp-1197467,Cs5Th(PS4)3,-1.4204019137482409
mp-16000,Cs5Ti6AgSe27,-0.8469319127709178
mp-966740,Cs5Tl11Cd2,-0.1181902353352492
mp-1105330,Cs5U2S4ICl8,-2.017550366168224
mp-1198376,Cs5V5FeCl6O13,-2.262978798061483
mp-1178475,Cs5YO4,-1.9030475328534484
mp-635020,Cs6Bi4O9,-1.6510247293942841
mp-1178399,Cs6Br4O,-1.6414900134992159
mp-29983,Cs6Cl4O,-1.9644140733210345
mp-773199,Cs6Co2O7,-1.5204597213994249
mp-1193081,Cs6Cr2O7,-1.8629836363994257
mp-1197810,Cs6Dy21S34Cl,-2.4062326056230066
mp-1203042,Cs6Dy21Te34Cl,-1.4444222342016346
mp-1105876,Cs6Fe2O5,-1.4779524756531832
mp-9697,Cs6GaSb3,-0.4000307317241383
mp-1178450,Cs6Ge2O7,-1.9681579303994248
mp-1201448,Cs6Hf5(O2F13)2,-3.315204039711741
mp-1199243,Cs6Ho21S34Cl,-2.40934960521978
mp-1201961,Cs6Ho21Te34Cl,-1.4366064391209905
mp-22506,Cs6InAs3,-0.35790672605747104
mp-17120,Cs6K3AlSb4,-0.42229390723152704
mp-541811,Cs6K3GaSb4,-0.42244953223152704
mp-569866,Cs6K7,0.02233803436604772
mp-1204705,Cs6Mo4C10S2O27,-1.734223102686049
mp-557127,Cs6Na2Nb6H36O37,-1.925600760848406
mp-1213698,Cs6Na4Tl13,-0.13844195401049486
mp-628279,Cs6Si2NiO8,-2.2181395557200814
mp-18315,Cs6Si2O7,-2.4003802300660926
mp-770128,Cs6Ti2O7,-2.5053036652883143
mp-1199290,Cs6U2(Cu4S5)3,-1.1359273835193968
mp-619101,Cs6ZnGe8,-0.1989916181494247
mp-1195066,Cs7(FeS2)4,-1.1235712397867514
mp-581533,Cs7(In2Bi3)2,-0.33418521716362404
mp-1203378,Cs7(InAs2)3,-0.31236396677801714
mp-510075,Cs7Au5O2,-0.7102151911391624
mp-667295,Cs7Cd3Br13,-1.4686984929760118
mp-650499,Cs7Co4F15,-2.7188056525499325
mp-573073,Cs7Cu6F19,-2.373119408626821
mp-616869,Cs7Fe4F15,-2.877215642934549
mp-1204347,Cs7Mo8AsO30,-2.1754802051836584
mp-1199908,Cs7NaSi8,-0.06839528802801764
mp-631378,Cs7NbIn3As5,-0.4421954899030172
mp-650451,Cs7Ni4F15,-2.6006509969730107
mp-585476,Cs7Np3(Cl2O)6,-2.5856326821899382
mp-561735,Cs7O,-0.4493347614206182
mp-705054,Cs7U8V2ClO32,-3.2094737140341656
mp-1229160,Cs8(Re4S9)3,-1.1471011604115449
mp-1198676,Cs8Fe2O7,-1.5584937249061863
mp-1200207,Cs8Ga11,-0.13943884392921965
mp-1202213,Cs8Ga11Cl,-0.3653551436457583
mp-1196865,Cs8In2O7,-1.5696504652983432
mp-1226675,Cs8Na4Y3HoCl24,-2.49046726932238
mp-1226101,Cs8Na4YHo3Cl24,-2.4924195155723803
mp-542069,Cs8Ta6O19,-2.9528335252547016
mp-561017,Cs8Tl8O,-0.3156595000532453
mp-1197180,Cs8Zr(MoO4)6,-2.3676564330680807
mp-1198953,Cs9(NbAs3)2,-0.435822775786004
mp-866492,Cs9AlO4,-1.3788537543472903
mp-1202536,Cs9Fe2S7,-1.1784483407944206
mp-1201016,Cs9Fe2Se7,-0.921867868251018
mp-1183947,CsAc,0.4683766160632184
mp-1183957,CsAc3,0.434344349698276
mp-863760,CsAcTe2,-1.1758160732183909
mp-699468,CsAg(BH)10,-0.2431047637078892
mp-558217,CsAg(NO3)2,-1.1496440863466897
mp-679997,CsAg2(B5O8)3,-2.672956582945402
mp-1193928,CsAg2BiS3,-0.7622869476277714
mp-23496,CsAg2I3,-0.7112430785344825
mp-561902,CsAg3S2,-0.6077591565553161
mp-16234,CsAg3Se2,-0.4351651163990661
mp-1213692,CsAg3Te2,-0.40034812020114896
mp-10480,CsAg5Se3,-0.32335465133201624
mp-1198931,CsAg7S4,-0.4429658274964083
mp-571100,CsAgBr2,-1.0942893153017241
mp-998344,CsAgBr3,-0.9186213772413794
mp-10101,CsAgC2,0.361286157823276
mp-567558,CsAgCl2,-1.5189712856817243
mp-561920,CsAgF3,-2.14870898195538
mp-1199489,CsAgH12C4S4(NO4)2,-0.8965815272080269
mp-8666,CsAgO,-1.0049079983189653
mp-1096933,CsAgO2,-1.022088190926724
mp-865980,CsAgPSe3,-0.5188244881885004
mp-18105,CsAgSe4,-0.4030589330136494
mp-1078399,CsAl,0.2863442243965517
mp-634446,CsAl(H2N)4,-0.6910046110490639
mp-542116,CsAl(MoO4)2,-2.4559408780172407
mp-562920,CsAl(SiO3)2,-3.2584705162456893
mp-558602,CsAl3(P3O10)2,-2.9469344711354686
mp-1226735,CsAl3(SiO4)3,-2.9610463448003634
mp-561999,CsAlAgF6,-2.9307409462052108
mp-542129,CsAlBP2HO9,-2.7895857444686194
mp-29103,CsAlBr4,-1.4634759760344829
mp-27260,CsAlCl4,-2.2018123394578155
mp-510370,CsAlCuF6,-3.0595774289829887
mp-572702,CsAlF4,-3.6607959833555936
mp-1226105,CsAlFe3(SiO4)3,-2.7433499850603447
mp-1198095,CsAlH24(SO10)2,-1.6664742350252482
mp-24523,CsAlH24(SeO10)2,-1.5096482546932168
mp-1225930,CsAlNiF6,-3.1824234242607665
mp-14069,CsAlO2,-2.8629395596767235
mp-17033,CsAlPdF6,-2.926728697316322
mp-1192933,CsAlSiO4,-3.2034843301724134
mp-1189272,CsAlTe3,-0.6529974662413796
mp-1213699,CsAlZnF6,-3.3445838425940995
mp-1185571,CsAs(HO2)2,-1.7677784123058615
mp-645172,CsAs2Se3,-0.4765396957480241
mp-554229,CsAs3O8,-1.786602830517241
mp-30927,CsAs4F13,-2.590242883704272
mp-5707,CsAsF4,-2.7412847001611502
mp-9820,CsAsF6,-2.789617714793362
mp-866612,CsAsH6(CSe)2,-0.36328086480119975
mp-776093,CsAsO3,-1.90605704499138
mp-562403,CsAsOF4,-2.6099106967452705
mp-1200560,CsAu(IO3)4,-0.932140927289272
mp-555376,CsAu(SO4)2,-1.8155705822359915
mp-554737,CsAu2F7,-1.7909370254536896
mp-9384,CsAu3S2,-0.7210566857219831
mp-9386,CsAu3Se2,-0.4802744722323992
mp-569548,CsAuBr3,-0.9036675602413792
mp-1065405,CsAuC2,0.1779361340732759
mp-23484,CsAuCl3,-1.3999282581973795
mp-1095499,CsAuCl4,-1.3425296407078164
mp-1112985,CsAuF3,-1.95541680295538
mp-572767,CsAuF4,-2.069680913494483
mp-28453,CsAuI3,-0.7217327362413795
mp-568861,CsAuN12,0.1429122539452225
mp-9986,CsAuO,-1.070547871652299
mp-997024,CsAuO2,-1.1450633959267238
mp-1185548,CsAuO3,-0.4643760279913799
mp-1077383,CsAuS,-0.9978919817564657
mp-574599,CsAuSe,-0.7701844182668821
mp-567913,CsAuSe3,-0.4920512733976296
mp-1060982,CsB,2.222233088563218
mp-505375,CsB(CF4)2,-2.2950837941577973
mp-13588,CsB(CN)4,-0.16165135973935635
mp-759303,CsB10H13C,-0.2991062100473425
mp-863006,CsB2H5O6,-2.032331384652874
mp-1198124,CsB2P2HO9,-2.6509793767463967
mp-28582,CsB3H8,-0.34311865126390845
mp-1004528,CsB3PbF12,-3.160013422969818
mp-23742,CsB5(H2O3)4,-2.1858911273461628
mp-581194,CsB5O8,-2.8488117171993017
mp-707883,CsB6H8O7,-1.4255606589280412
mp-27590,CsB9H14,-0.25566958216195346
mp-531006,CsB9O13,-2.6499002530416047
mp-680683,CsB9O14,-2.8444298301544557
mp-559063,CsBC3NO2F9,-1.813098132041974
mp-555532,CsBC3NOF9,-1.8008132206852228
mp-4057,CsBF4,-3.335727451688927
mp-1225884,CsBH4,-0.4967803628922602
mp-1199273,CsBHC3OF9,-1.9624683190439736
mp-561725,CsBO2,-2.618033495510058
mp-1087531,CsBO6,-0.6050786737966956
mp-1004530,CsBPb(IF2)2,-2.3967357464037296
mp-1019717,CsBS3O11,-2.159697713206942
mp-573358,CsBSe3,-0.5744473157309627
mp-556936,CsBa(BO2)3,-2.927994697155172
mp-541722,CsBa2Br5,-2.1368756157758617
mp-1225929,CsBa2Co2F9,-3.220582569422636
mp-865726,CsBa2Cr2F11,-3.5372673002685557
mp-505814,CsBa2Nb3O10,-3.146398555544181
mp-1225987,CsBa2Ni2F9,-3.1085185172797787
mp-1194731,CsBa2SnS4Cl,-1.9068092195241002
mp-1225924,CsBa2Zn2F9,-3.322372812994064
mp-1183939,CsBa3,0.16067557344827565
mp-1225999,CsBa3Ga5(Se5Cl)2,-1.3213360942221135
mp-567121,CsBaCr3F12,-3.2949063897345234
mp-1096925,CsBaI3,-1.6992478007413794
mp-532541,CsBaIn2(PO4)3,-2.719224287858008
mp-1019708,CsBaLiP2O7,-2.9560851413952167
mp-1183934,CsBaO3,-1.3216325719913795
mp-1192526,CsBaPS4,-1.5880469588713937
mp-995225,CsBaSiHO4,-2.692588091228361
mp-1192754,CsBaVS4,-1.7760212624938432
mp-553342,CsBe2BO3F2,-3.1821859498892846
mp-27192,CsBe2F5,-3.4895355952696123
mp-1019718,CsBe4(BO3)3,-2.968093832056288
mp-540725,CsBe4Al4(B3O7)4,-2.926858906351161
mp-9113,CsBeAsO4,-2.3082755305295564
mp-12262,CsBeF3,-3.4241586934553787
mp-24341,CsBeH3,-0.19027344841337915
mp-15395,CsBePO4,-2.885637880121393
mp-1205121,CsBi,-0.3579992474784484
mp-1213697,CsBi(MoO4)2,-2.0944814684339086
mp-1105273,CsBi2Br7,-0.9938920996206893
mp-29531,CsBi3S5,-0.9333863687799336
mp-1226121,CsBi4Se7,-0.4807173655302624
mp-27422,CsBiF6,-2.5662960610433623
mp-29506,CsBiO2,-1.6875447746767236
mp-983578,CsBiO3,-1.3772488429913792
mp-28650,CsBr2F,-1.4926975905992244
mp-27641,CsBr3,-0.983575487801724
mp-22935,CsBrF,-1.9673818607989657
mp-1103152,CsBrF4,-1.981755926827816
mp-541226,CsBrF6,-1.8911495816683623
mp-28873,CsBrO3,-1.0734176699913796
mp-29577,CsBrO4,-0.8702854043678159
mp-505806,CsC,0.34171534939655235
mp-1213690,CsC(OF)2,-1.9843014787228164
mp-1721,CsC10,0.20242794799634284
mp-1213691,CsC15,0.2469600829714427
mp-608206,CsC2I3N2,-0.07599774918336166
mp-1029718,CsC2N3,-0.27933204958559243
mp-573066,CsC2S2N(O2F3)2,-1.7818994302407432
mp-569889,CsC3(SeN)3,0.04513254446218511
mp-1181828,CsC4S4N8O2F,0.14450361374065465
mp-28861,CsC8,-0.04585212624520965
mp-1225916,CsCNO,-1.2521903983967242
mp-555131,CsCO2,-1.911573664676724
mp-14734,CsCOF3,-2.3474486724628147
mp-554592,CsCS(OF)3,-2.1019767495932657
mp-614311,CsCSN,-0.7151983622248492
mp-757826,CsCa(NO2)3,-1.528170325304263
mp-1201263,CsCa(PO3)3,-2.9202549772418203
mp-1195838,CsCa(SeO4)3,-1.34289803761695
mp-1019714,CsCa10(PO4)7,-3.3008523305697146
mp-581330,CsCa2Nb3O10,-3.1715116773410568
mp-10347,CsCa2Ta3O10,-3.3395838077316804
mp-984523,CsCa3,0.2580999203232757
mp-30056,CsCaBr3,-1.9913733367413797
mp-862701,CsCaCO3F,-2.798250265580509
mp-1097916,CsCaCl3,-2.6311008186973788
mp-7104,CsCaF3,-3.74067555045538
mp-1193607,CsCaH2N9O,-0.6637150870440648
mp-644203,CsCaH3,-0.4687366094133793
mp-998428,CsCaI3,-1.6184694637413792
mp-1213700,CsCaTa6Cl18,-1.8881123579764183
mp-6628,CsCd(NO2)3,-1.1532543768951735
mp-13738,CsCd(PO3)3,-2.5639570265275347
mp-1713,CsCd13,-0.061836346514778325
mp-1079080,CsCd4As3,-0.24474669140086205
mp-560558,CsCdAuS2,-0.9870732288663796
mp-541899,CsCdBr3,-1.281246021241379
mp-619015,CsCdCl3,-1.8308025165307131
mp-8399,CsCdF3,-2.72763918995538
mp-1192885,CsCdI3O,-0.7383171466594826
mp-1195350,CsCdInTe3,-0.6392987570067051
mp-1183925,CsCdO3,-0.7195681849913796
mp-1213689,CsCe(PO3)4,-2.9170380430432408
mp-510569,CsCeCuS3,-1.7446414505657326
mp-1099115,CsCeMg14,0.2098460508620692
mp-1039964,CsCeMg30O32,-2.896863771815733
mp-7015,CsCeS2,-2.074029858582974
mp-1194418,CsCeSiS4,-1.7840103514224144
mp-573969,CsCeSiSe4,-1.2321752618688429
mp-552131,CsClO2,-1.1960657067417246
mp-779389,CsClO3,-1.286751346643379
mp-30206,CsClO4,-1.2182255436611495
mp-540895,CsCo(CO)4,-1.0218105826206894
mp-504708,CsCoCl3,-1.5250416321973794
mp-1225979,CsCoCuF6,-2.3398946103718767
mp-1228841,CsCoCuS2,-0.7952354428663796
mp-616694,CsCoF3,-2.5459687922887126
mp-1202342,CsCoF4,-2.483070542994483
mp-735563,CsCoH18N6(ClO2)4,-0.8060174549654434
mp-1197964,CsCoH24(C7N4)2,-0.1965341859297259
mp-850504,CsCoH24(SO10)2,-1.5401171044523303
mp-1029491,CsCoN,-0.09441139286229827
mp-1228915,CsCoNiF6,-2.4420572131496554
mp-1147521,CsCoO2,-1.4046178209267242
mp-1213696,CsCoPO4,-2.4082655747642505
mp-1213686,CsCr(MoO4)2,-2.226589568850576
mp-1213684,CsCr(SO4)2,-2.2177545220276578
mp-641545,CsCr3O8,-1.959618054683908
mp-540569,CsCr5S8,-1.1737555784790652
mp-505149,CsCr5Se8,-0.6442513474969209
mp-866025,CsCr5Te8,-0.3268153175862066
mp-1195248,CsCrAs2O7,-1.987945267496081
mp-27179,CsCrBr3,-1.1367578992413792
mp-1147742,CsCrC6,0.9777537770366383
mp-29616,CsCrCl3,-1.7443402701973796
mp-605745,CsCrClO3,-1.834410827202816
mp-1225975,CsCrCoF6,-2.8923674009274327
mp-1228892,CsCrCuF6,-2.6877882887052107
mp-556663,CsCrF4,-3.1014757190500384
mp-1225950,CsCrFeF6,-3.0113546864829885
mp-25512,CsCrH18Br2N6(ClO4)2,-0.8026144732149171
mp-25511,CsCrH18N6(ClO2)4,-0.854034162333865
mp-850477,CsCrH24(SO10)2,-1.6043237854419143
mp-1202355,CsCrH24(SeO10)2,-1.4470474427661335
mp-675843,CsCrI2,-0.5670036678017238
mp-580597,CsCrI3,-0.8111202937413791
mp-1229022,CsCrNiF6,-2.807446957038544
mp-651934,CsCrP2O7,-2.6785342987947827
mp-1103473,CsCrP2S7,-0.9942079008118284
mp-558907,CsCu(BiS2)2,-0.8672002853071126
mp-23017,CsCu2Br3,-0.8017702602011489
mp-23065,CsCu2Cl3,-1.247079898497816
mp-572903,CsCu2F5,-2.1576290915196124
mp-14581,CsCu2F6,-2.1540140114829875
mp-23431,CsCu2I3,-0.6245687627011489
mp-579536,CsCu2ICl2,-1.070501002121149
mp-605196,CsCu3As8H24C8(IO2)4,-0.5996273550551224
mp-1181597,CsCu3GeSe4,-0.20818816173132149
mp-553303,CsCu3O2,-0.9786787614511492
mp-7786,CsCu3S2,-0.7640460657219829
mp-7785,CsCu4S3,-0.6525746735492999
mp-505198,CsCu4Se3,-0.36166338649851815
mp-561033,CsCu5S3,-0.596953507043822
mp-27336,CsCuBr3,-0.9331782567413792
mp-1025439,CsCuC2,0.27719975157327603
mp-23032,CsCuCl3,-1.470702704864046
mp-540921,CsCuF4,-2.241263896827817
mp-1228931,CsCuNiF6,-2.2012534631496554
mp-541037,CsCuO,-1.1967086791522987
mp-553310,CsCuO2,-1.3564485484267237
mp-697523,CsCuP3H8O13,-1.937658806263288
mp-1198842,CsCuPS3,-0.9768557719645432
mp-1201069,CsCuPSe3,-0.5156544508968341
mp-1228942,CsCuRhF6,-2.1728222820385437
mp-18003,CsCuS4,-0.8784656058261492
mp-1199244,CsCuS6,-0.8166955956977375
mp-17095,CsCuSe4,-0.4257743121803159
mp-1213683,CsCuTeS3,-0.8008459522323991
mp-622861,CsDy(MoO4)2,-2.619243357183908
mp-1213681,CsDy(WO4)2,-2.6657249559339067
mp-1190421,CsDy2Ag3Te5,-0.8807750842006267
mp-1213680,CsDy2Cl7,-2.68739255365269
mp-1190785,CsDy2Cu3S5,-1.5437401455926725
mp-18672,CsDy2Cu3Se5,-1.116514000379604
mp-1079040,CsDyBr3,-1.6128898802413794
mp-11122,CsDyCdSe3,-1.3609869386646911
mp-12487,CsDyCdTe3,-1.0853413018678155
mp-505418,CsDyI3,-1.2552226647413791
mp-1182549,CsDyN4O15,-0.8603096929512807
mp-754138,CsDyO2,-2.9809776884267234
mp-984555,CsDyS2,-2.156049147332975
mp-1193064,CsDySiS4,-1.8211651171367005
mp-1102146,CsDyZnSe3,-1.4067883744980236
mp-510462,CsDyZnTe3,-1.0969547235344828
mp-1213682,CsEr(MoO4)2,-2.6487179734339072
mp-569903,CsEr(NbBr3)6,-1.1459036363925723
mp-561712,CsEr(PO3)4,-2.9373609359599064
mp-571010,CsEr(TaBr3)6,-1.1311195400464196
mp-1213193,CsEr(WO4)2,-2.6515052192672406
mp-1196026,CsEr10(C2I9)2,-1.228103774885057
mp-647152,CsEr13(CoI12)2,-1.2216200651551727
mp-1190252,CsEr2Ag3Te5,-0.8167005219278998
mp-1213445,CsEr2Cl7,-2.67878448015269
mp-18540,CsEr2Cu3S5,-1.5386301078654
mp-542482,CsEr2Cu3Se5,-1.1084917776523306
mp-17410,CsEr3Se5,-1.8357462282417376
mp-23118,CsEr6CI12,-1.2532372822478444
mp-12488,CsErCdTe3,-1.0727021252011495
mp-1213650,CsErMnSe3,-1.3258906236646917
mp-754055,CsErO2,-3.000638774676724
mp-1198204,CsErP2O7,-3.176583090385692
mp-561751,CsErS2,-2.1500484223329748
mp-16972,CsErSiS4,-1.8131339885652715
mp-568606,CsErTa6Cl18,-1.8983173455725733
mp-569107,CsErZnTe3,-1.087151837701149
mp-1183965,CsEu,0.31681885939655263
mp-1213374,CsEu(MoO4)2,-2.4227226367672414
mp-1019736,CsEu(PO3)4,-2.80655352179324
mp-1213312,CsEu(WO4)2,-2.460865783433908
mp-29613,CsEu2I5,-1.6049757848383617
mp-1185569,CsEu3,0.30225653219827553
mp-1190817,CsEuAsS3,-1.4768674826490658
mp-638685,CsEuBr3,-1.9779110032413796
mp-1213256,CsEuCl3,-2.5921154866973786
mp-8396,CsEuF3,-3.5997688779553787
mp-1185550,CsEuO3,-1.9791774509913795
mp-1213376,CsEuPO4,-2.9302979022642504
mp-1076928,CsEuS2,-1.8302969373329736
mp-1192887,CsEuSiS4,-1.6482752203509858
mp-1213620,CsEuTa6Cl18,-1.8927534994187256
mp-1213406,CsFe(OF2)2,-1.6677406035583622
mp-565430,CsFe(SO4)2,-2.1674723920276584
mp-1197505,CsFe2F6,-2.890726536205212
mp-19476,CsFe2P5O16,-2.575062992580049
mp-542475,CsFe2S3,-1.0391697038990664
mp-662563,CsFe2Se3,-0.5207961861646915
mp-1197172,CsFe3P3O14,-2.1288369638159743
mp-1120753,CsFe4As3,-0.05587124515086295
mp-1196710,CsFe5(MoO4)7,-2.0447209600294363
mp-1196464,CsFeAgF6,-2.4642013778718765
mp-761395,CsFeBP2HO9,-2.526077764635285
mp-1197350,CsFeBP3O11,-2.651096086650125
mp-1079847,CsFeBr3,-0.8128350712413791
mp-1213351,CsFeBr4,-1.0177763747844828
mp-29400,CsFeCl3,-1.6281049251973785
mp-27570,CsFeCl4,-1.6683299961244826
mp-1226043,CsFeCoF6,-2.765817787038544
mp-1228920,CsFeCuF6,-2.5668829925940995
mp-1228825,CsFeCuS2,-0.8556216648663799
mp-555302,CsFeF3,-2.84175736395538
mp-554225,CsFeF4,-2.9244929472444823
mp-746702,CsFeH24(SO10)2,-1.5788325659627482
mp-745125,CsFeH24(SeO10)2,-1.4207709275578004
mp-744268,CsFeH4Cl3O2,-1.5829168714060808
mp-568620,CsFeI4,-0.6920164093678162
mp-1225937,CsFeNiF6,-2.6821755309274327
mp-1080749,CsFeO2,-1.7901388221767238
mp-1192997,CsFeP(H6O5)2,-1.6394371873715898
mp-25755,CsFeP2O7,-2.5872349647038733
mp-505632,CsFeS2,-1.1082339873329747
mp-644325,CsFeSiO4,-2.591518354458128
mp-1200733,CsGa(PO3)4,-2.630260742533981
mp-1213179,CsGa(SO4)2,-2.168450623694324
mp-1200987,CsGa(SeO3)2,-1.7074768183394404
mp-1195725,CsGa2(Se2O7)2,-1.2404451913372332
mp-1191527,CsGa2Au3,-0.3053060881178163
mp-555006,CsGa2P5O16,-2.631173645288382
mp-574338,CsGa3,-0.13088607488505724
mp-573145,CsGa3S5,-1.2464357429466004
mp-1225982,CsGa5(HgSe3)4,-0.5416139572423588
mp-1192476,CsGa9Au5,-0.2555673004137929
mp-1213239,CsGaAgF6,-2.5302019853718773
mp-1201408,CsGaBP2HO9,-2.590635767135286
mp-672251,CsGaBr4,-1.2605883427011495
mp-608516,CsGaCl4,-1.9247132940411493
mp-1225926,CsGaCuF6,-2.6546847775940985
mp-738629,CsGaH24(SO10)2,-1.597630390650248
mp-984550,CsGaH4,-0.29484714928114936
mp-1225948,CsGaNiF6,-2.7733946209274336
mp-1213401,CsGaO2,-2.111144138582974
mp-1200666,CsGaP3HO10,-2.5523628580472177
mp-5038,CsGaS2,-1.3850970135829743
mp-510283,CsGaSe3,-0.7886429293976296
mp-17688,CsGaTe2,-0.7387825653017241
mp-1185562,CsGd,0.6441576968965519
mp-541789,CsGd(CO3)2,-2.549759907120688
mp-1213392,CsGd(MoO4)2,-2.599076553433908
mp-573001,CsGd(PO3)4,-2.9270821372099065
mp-1213254,CsGd(WO4)2,-2.633938363850575
mp-1191228,CsGd2Ag3Se5,-1.1381669340159684
mp-1190455,CsGd2Ag3Te5,-0.8661970451097173
mp-1213349,CsGd2Cl7,-2.68125591790269
mp-1190996,CsGd2Cu3Se5,-1.1237025481068763
mp-1104011,CsGdCdTe3,-1.0935586993678157
mp-22291,CsGdHgSe3,-1.2402921111646912
mp-755651,CsGdO2,-2.922871298426724
mp-9084,CsGdS2,-2.1501610685829746
mp-630711,CsGdSiS4,-1.8285761335652708
mp-1104966,CsGdTe4,-0.9562615152011488
mp-1273,CsGe,-0.2118861463846984
mp-558804,CsGeB3O7,-2.6619162949964084
mp-553970,CsGeBiS4,-1.0292669146367
mp-642739,CsGeBr3,-1.1312329702413797
mp-22988,CsGeCl3,-1.7001306961973792
mp-984051,CsGeO3,-1.2996827889913796