task_id,composition,formation_energy_per_atom
mvc-3847,Al2W2O7,-2.2188392976136355
mp-1190631,Al2W5O16,-2.2729507565217397
mp-1206713,Al2Zn,0.024290021666667272
mp-1228455,Al2Zn(SeS)2,-1.0590029343303573
mp-1228522,Al2Zn2S5,-1.3234560800347228
mp-2908,Al2ZnO4,-3.033953925
mp-4842,Al2ZnS4,-1.394988435178572
mp-7907,Al2ZnSe4,-0.831059395625
mp-7908,Al2ZnTe4,-0.4608462664285712
mp-541849,Al3(BRu2)2,-0.5910073331481485
mp-505537,Al3(Co10B3)2,-0.2820743634482763
mp-1228605,Al3(MoS2)8,-1.1498361042592595
mp-505472,Al3(Ni10B3)2,-0.39949594517241455
mp-1214868,Al3(O2F)2,-3.3080781491533333
mp-608080,Al3(PO4)4,-2.66005270113354
mp-1199889,Al3(PO8)2,-1.6321650094897948
mp-1193561,Al3(SiO5)2,-2.829123407166668
mp-1214915,Al3(V3C2)4,-0.5389075397826065
mp-1228719,Al37(Fe6Cu)2,-0.3258393472549019
mp-31403,Al39Fe7Cu24,-0.030876866571428862
mp-1183130,Al3Ag,0.04953133749999994
mp-1183129,Al3As,0.12292655375000015
mp-1183189,Al3Au,-0.1115164649999998
mp-16480,Al3Au8,-0.2796527731818185
mp-1228446,Al3BC,-0.09626744908333364
mp-1228599,Al3BC3,-0.09385537375000094
mp-1019380,Al3BN4,-1.3121842057733335
mp-1214839,Al3Bi(BO3)4,-2.951434860833333
mp-645282,Al3Bi5Br12,-0.8080661612500002
mp-646102,Al3Bi5Cl12,-1.4570639879560006
mp-645326,Al3Bi5I12,-0.47560516049999996
mp-1183140,Al3Cd,0.13667715375
mp-1215069,Al3Co(PO4)4,-2.874932540669642
mp-1201626,Al3Co(W3C)3,-0.10646349320312608
mp-1214851,Al3Co3Si4,-0.4576446879999999
mp-867780,Al3Cr,-0.13791243749999982
mp-773244,Al3Cr3(SbO8)2,-2.2880345500000003
mp-1228485,Al3CrO6,-3.15572372875
mp-985825,Al3Cu,-0.08638631625000004
mp-10886,Al3Cu2,-0.15698670599999928
mp-984873,Al3Fe,-0.1528928937499998
mp-1190708,Al3Fe2Si,-0.4033352608333338
mp-29066,Al3Fe2Si3,-0.3545210551562503
mp-505229,Al3FeSi2,-0.2533273999999993
mp-1214903,Al3FeSiBO9,-3.1273549118611115
mp-983594,Al3Ga,0.040873454999999836
mp-1228436,Al3GaN4,-1.3564458961899994
mp-1183195,Al3Ge,0.09740311874999996
mp-1228562,Al3GeW2,-0.10392759638888864
mp-1183138,Al3H,0.366223180345
mp-686547,Al3H36C12N3F4,-0.4262348568486212
mp-2294,Al3Ir,-0.6563091887499999
mp-571247,Al3Mo,-0.3167866668750001
mp-675601,Al3NO3,-2.8690078212328576
mp-622209,Al3Ni,-0.4011203324999997
mp-1057,Al3Ni2,-0.6102806060000006
mp-1228921,Al3Ni2Pt,-0.7375023316666672
mp-16514,Al3Ni5,-0.5694298599999996
mp-1229029,Al3Ni9C,-0.35179504374999976
mp-16521,Al3Os2,-0.4905808379999996
mp-1183180,Al3P,0.13121522196428614
mp-698160,Al3P2H14(O5F)3,-2.211617928169885
mp-1215114,Al3P2H6O11,-2.078903961011623
mp-1229312,Al3P3C4NO13,-2.0609908900024414
mp-1202100,Al3P3H7CNO13,-2.264660078764235
mp-1215156,Al3P3H7O12,-1.8117736146707428
mp-1204696,Al3P3H8C2NO13,-2.022592318342286
mp-772922,Al3P3H9C2NO13,-2.0656421328270507
mp-699455,Al3P3H9C3NO14,-2.007038320155715
mp-738697,Al3P4H18C3N3O16,-1.7457316615344989
mp-1215146,Al3P8NO36,-1.4658400437400598
mp-541732,Al3Pb5F19,-3.2335797489855564
mp-1183127,Al3Pd,-0.3470830025000007
mp-10901,Al3Pd2,-0.7709104040000001
mp-16523,Al3Pd5,-0.8490247862500002
mp-1183175,Al3Pt,-0.44886890999999984
mp-10905,Al3Pt2,-0.9965887100000004
mp-1501,Al3Pt5,-0.91297947375
mp-1188814,Al3Ru,-0.3843208474999997
mp-1070580,Al3Ru2,-0.7044192440000003
mp-24601,Al3Si2H3O10,-2.8680399757422226
mp-1229197,Al3Si3(PbO8)2,-2.373172230833333
mp-1214863,Al3Si3Ag4IO12,-2.5288906569565226
mp-1200284,Al3Si3Pb2O13,-2.9056569222023825
mp-1228909,Al3SiPd4,-0.8189839049999996
mp-1183131,Al3Sn,0.16021224125000044
mp-1070275,Al3Tc2,-0.15710774200000016
mp-28693,Al3Te3I,-0.4760709271428572
mp-983584,Al3Tl,0.3052820062499997
mp-1229069,Al3Tl4Fe(As2O7)4,-1.9574396069318167
mp-2554,Al3V,-0.2860501150000001
mp-1228977,Al3W3C4,0.3948854705000002
mp-1228936,Al3WC4,0.6460329731250001
mp-983585,Al3Zn,0.04329847624999994
mp-1228973,Al3ZnCr8,-0.06774579541666625
mp-1229039,Al3ZnNi12,-0.3466242090625
mp-31408,Al4(B2O5)3,-3.0986087331499994
mvc-12907,Al4(BiS4)3,-0.9071411201973676
mvc-12845,Al4(BiSe4)3,-0.4160252885855263
mvc-14109,Al4(CoO4)3,-2.192899535263157
mvc-15002,Al4(FeO4)3,-2.404980932894736
mvc-12893,Al4(NiO4)3,-1.9651310602631584
mp-1229052,Al41V4,-0.09300059133333384
mp-31019,Al45Cr7,-0.11696326634615307
mp-567919,Al45V7,-0.15084781192307764
mp-1193623,Al4As3O23,-1.1271780454583336
mp-23426,Al4Bi2O9,-2.8719221650833333
mp-1591,Al4C3,-0.09135634517857076
mp-10990,Al4CN3O,-0.8333034074600001
mp-676414,Al4CO,-0.6001350716666659
mp-13703,Al4CO4,-2.6065985359722226
mp-1190488,Al4CdO7,-3.1132202911458333
mp-19348,Al4Co(BO5)2,-3.0352136512254893
mp-1044552,Al4Co13Si2(SbO14)2,-2.112734618673469
mp-1044864,Al4Cr13Si2(SbO14)2,-2.4172096637755103
mp-1228914,Al4CrNi15,-0.3517526984999996
mp-1228748,Al4CrS8,-1.1866513125000009
mp-1044336,Al4Cu13Si2(SbO14)2,-1.7787999025510204
mp-1228752,Al4Cu15,-0.09212295736842098
mp-1197460,Al4Fe(SiO6)2,-3.0216069597368422
mp-1133344,Al4Fe13Si2(SbO14)2,-2.3239096733673468
mp-1229285,Al4Fe2CuP4(H8O13)2,-2.049393778094179
mp-1204107,Al4Fe2Si5O18,-3.1481288154310336
mp-1228777,Al4Fe5Rh,-0.2400822300000001
mp-1228691,Al4GaSb5,-0.1543347824999998
mp-1228701,Al4Ge2W3,-0.0974734111111104
mp-1199608,Al4H12C15O31,-1.6113654055393545
mp-1229278,Al4H50S7O52,-1.7060917929596242
mp-1228698,Al4InAgS8,-1.2104594561309523
mp-1228721,Al4InAgSe8,-0.7264673330059525
mp-1228728,Al4InAgTe8,-0.3881189238095238
mp-1228699,Al4InCuS8,-1.2490817911309529
mp-30180,Al4Mo,-0.2495884406666666
mp-1228788,Al4Ni12C,-0.367597270514705
mp-1228713,Al4Ni15,-0.2698365231578949
mp-1228288,Al4Ni15Ge,-0.3994355257499997
mp-1228500,Al4Ni15Sb,-0.37327875525
mp-1228460,Al4Ni15Sn,-0.3691070367500003
mp-16515,Al4Ni3,-0.6258222982142863
mp-1228186,Al4Ni3Pt,-0.7229650012500004
mp-706709,Al4P3(HO5)3,-2.831106383641542
mp-709031,Al4P4H11C3NO18,-1.9937355292566183
mp-1201890,Al4P5HN2O21,-2.1981778806164933
mp-1215160,Al4Re12B,4.203367613725492
mp-1199693,Al4SO18,-0.9456231484374996
mp-1228120,Al4Si,0.08474381599999957
mp-1203554,Al4Si19,0.23267537065217425
mp-1228192,Al4Si2Mo3,-0.33301797777777786
mp-1044564,Al4Si2Ni13(SbO14)2,-1.8736585517346944
mp-1044109,Al4Si2Sn13(SbO14)2,-2.128396896734696
mp-1106244,Al4SiC4,0.10683383222222256
mp-1228117,Al4SiPd,-0.30461186500000065
mp-1104047,Al4Tc,-0.3757562146666667
mp-1044922,Al4V13Si2(SbO14)2,-2.462851380102041
mp-1228506,Al4VNi15,-0.4026673595000005
mp-30336,Al4W,-0.15376551800000016
mp-1228406,Al4Zn3Cr2O12,-2.777265557142858
mp-693340,Al4Zn4P8H13N3O32,-2.271727347442857
mp-1096832,Al4ZnS7,-1.3650111477864588
mvc-12090,Al5(BiS4)3,-1.0077838130625012
mvc-12088,Al5(BiSe4)3,-0.5265020410312502
mvc-13349,Al5(CoO4)3,-2.5778669055
mvc-14071,Al5(CuO4)3,-2.34589739075
mvc-14111,Al5(FeO4)3,-2.8057192634999986
mvc-11911,Al5(NiO4)3,-2.353358909500001
mp-1229054,Al53Fe17Si12,-0.3132269289024389
mp-1228170,Al5AgS8,-1.3222376208928577
mp-3281,Al5BO9,-3.3821488721944446
mp-5496,Al5C3N,-0.38142586595888794
mp-196,Al5Co2,-0.4584997007142846
mvc-13206,Al5Cu3Si6(O7F2)3,-2.878852326119268
mp-35267,Al5CuS8,-1.3744369273214292
mp-37405,Al5CuSe8,-0.7608344541964291
mp-1228374,Al5FeNi,-0.3810400749999993
mp-626161,Al5HO8,-3.223366274901428
mp-571053,Al5Mo,-0.2393973783333324
mp-1228559,Al5Ni41B12,-0.3731869001724145
mp-1182893,Al5O8,-3.247816802307692
mp-1192984,Al5Re24,-0.0745713644827592
mp-1228158,Al5S8,-1.3560335794230771
mp-1214826,Al5Sb3O16,-2.5745295777083332
mp-1228165,Al5Se8,-0.7443199814423074
mp-30337,Al5W,-0.1598132641666664
mp-6738,Al6B5(O5F)3,-3.288628968298391
mp-1214854,Al6B5O18,-2.933515978994254
mp-686476,Al6Bi24Cl23,-0.9421474326411317
mp-5798,Al6C3N2,-0.5477428019100007
mp-1228266,Al6CO7,-2.6526245119642864
mp-9203,Al6Cd4SO12,-2.7411221664809773
mp-9535,Al6Cd4TeO12,-2.7037243089130434
mp-1228194,Al6CoCu3,-0.2953905330000005
mp-1228556,Al6Cu2B4O17,-2.9046849654454028
mp-1202099,Al6CuP4(H4O7)4,-2.3015459845725714
mp-1190320,Al6Ge5,0.048813907727272655
mp-1214809,Al6GeW,-0.10410249062500032
mp-775365,Al6H16C5(Cl2O)6,-1.4052368152953325
mp-16528,Al6Re,-0.20529471321428616
mp-530331,Al6SnTe10,-0.4317590021568629
mp-686801,Al6ZnP4(H4O7)4,-1.6285231248452987
mp-569102,Al7(CN)3,-0.6884204983376918
mp-28759,Al7(TlS4)3,-1.3539867874431817
mp-1229249,Al79(Fe13Si9)2,-0.31640063967479565
mp-17856,Al7CoCu2,-0.2701965457500002
mp-1228228,Al7Cr(Bi2O9)2,-2.779313228083334
mp-1214887,Al7Cu2Rh,-0.3735279705000011
mp-1214866,Al7Cu2Ru,-0.33728744825000023
mp-4689,Al7FeCu2,-0.2516641275000012
mp-1019381,Al7Si3BO18,-3.3474221865229894
mp-14506,Al7Te10,-0.4331994602941177
mp-13875,Al8(Pb3O7)3,-2.534956092401316
mp-1228130,Al8BC5,-0.04398402645833244
mp-541187,Al8C3N4,-0.7835758317179995
mp-19954,Al8Cr5,-0.05733064384615279
mp-1193259,Al8Fe5,-0.2826792496153854
mp-2733,Al8Mo3,-0.3296128245454542
mp-1229326,Al8P8H22C14N4O33F2,-1.8080306246970639
mp-693763,Al8P8H34N7O36F5,-2.1019833019676817
mp-772413,Al8SiO14,-3.3681027092391305
mp-1228763,Al8V5,-0.21776130461538493
mp-1229020,Al8Zn3CdS16,-1.3736298076785722
mp-1228970,Al8Zn3CoO16,-2.99859230375
mp-1228742,Al9Co2Ni,-0.3969927777083336
mp-1228622,Al9Cr(BO9)2,-3.2849595481944447
mp-1214838,Al9Cr3Si,-0.18735668153846166
mp-1229042,Al9Fe2(SiO6)4,-3.1845786900000013
mp-744386,Al9Fe2Si4HO24,-3.1023534199655014
mp-1229075,Al9Si2BO19,-3.3735123696908604
mp-1228997,Al9SiC7N,-0.11705118631277775
mp-1228901,AlAg,-0.04263747999999978
mp-1228964,AlAg(PSe3)2,-0.3065077925848215
mp-1047674,AlAg(WO4)2,-2.1158672162500003
mp-985805,AlAg2,-0.07421034666666652
mp-1228988,AlAg3,-0.07738016899999993
mp-1205591,AlAg3F6,-2.220183583714
mp-1228947,AlAg4,-0.025963671999999605
mp-1096668,AlAgAu2,1.0509857925
mp-631568,AlAgB,0.8492806744444449
mp-1214923,AlAgF4,-2.9613327403766667
mp-9631,AlAgO2,-2.320011114375
mvc-3844,AlAgO3,-1.7522318117500006
mp-5782,AlAgS2,-1.0926358307812505
mp-14091,AlAgSe2,-0.6211317705468753
mp-1228963,AlAgSnSe4,-0.5030279999107142
mp-14092,AlAgTe2,-0.35940405749999993
mp-542678,AlAs(H2O3)2,-1.9188900672483344
mp-1182888,AlAs2,0.037096314583333616
mp-567734,AlAs3(SeCl)4,-0.8693056531179165
mp-558360,AlAs3S5Cl4,-1.0622240194886552
mp-7849,AlAsO4,-2.459218873333333
mp-1215024,AlAsO6,-1.377669616875001
mp-1025306,AlAsPt5,-0.5145872478571434
mp-1399,AlAu,-0.39244430625000026
mp-569558,AlAu2,-0.3188858700000002
mp-1183223,AlAu3,-0.1952918349999999
mp-1490,AlAu4,-0.2110001480000001
mp-16613,AlAuO2,-2.236222719375
mp-1183159,AlAuO3,-1.4155937427500007
mp-1200535,AlB2P2H7O13,-2.0658968321683617
mp-631514,AlB2Pb,1.7648958291666663
mp-1229224,AlB2Pb6(OF)7,-2.5384043826266667
mp-1205240,AlB3(H5N)6,-0.4927865705719995
mp-706662,AlB3H14N,-0.17858982206894625
mp-1019379,AlB3N4,-1.1422875861899993
mp-1200079,AlB5H16(NO7)2,-1.8341093540398241
mp-1205009,AlB6H6(CCl3)2,-0.7388003033942858
mp-1195438,AlB7Pd15,-0.25373008083333376
mp-7574,AlBMo,-0.4450644538888895
mp-1008557,AlBN2,-1.148843300356666
mp-8110,AlBO3,-3.1336060860833337
mp-24757,AlBP2H5NO9,-2.2412509921148622
mp-558137,AlBPbO4,-2.7348081011309517
mp-1070916,AlBW,-0.3041152372222224
mp-1042146,AlBi(WO4)2,-2.257075072916667
mp-1190020,AlBi2Se2BrCl4,-1.2116114525227502
mp-1200931,AlBi2Te2BrCl4,-1.1535921900540005
mp-1183170,AlBi3,0.2387287587500002
mp-1047502,AlBi3F15,-2.6084776314657896
mp-1229110,AlBi3Sb2O11,-2.0659463581617645
mp-1048242,AlBi3Se2ClO8,-1.460176408363166
mp-31268,AlBiBr6,-0.93654437125
mp-672273,AlBiCl6,-1.6970322868199998
mp-551918,AlBiO3,-2.51476364375
mp-561350,AlBiSCl4,-1.5906975206575005
mvc-13600,AlBiSe4,-0.260680851145833
mp-637206,AlBiSeCl4,-1.5014128820191073
mp-628665,AlBiTeCl4,-1.4626136590057144
mp-23288,AlBr3,-1.121820686875
mp-1202918,AlBr3N,0.07684018364899999
mp-39008,AlBr4,-0.7588516780000002
mp-1120783,AlC,0.5390852986249997
mp-1065540,AlC3,2.7084272809375003
mp-607454,AlC3(NCl2)3,-0.8039165133038461
mp-1105616,AlC3NCl3,0.4117608270737501
mp-1229258,AlC4NCl2,0.12534302451250046
mp-1182993,AlC7IN,0.9545230736370016
mp-1196181,AlC8BrO5,-0.5413317344999996
mp-1182891,AlCNO5,-1.5585089290474998
mp-1183215,AlCd3,0.10986383374999996
mp-1102961,AlCdCl4,-1.7050560021733332
mp-1182878,AlCdCu3Se4,-0.2944383765972217
mp-1096462,AlCdRh2,1.97550833875
mp-1228925,AlCdSbTe,-0.2876554149999997
mp-25469,AlCl3,-1.949712976195
mp-27863,AlClO,-2.7863169931700007
mp-284,AlCo,-0.603421889999999
mp-1047724,AlCo(WO4)2,-2.1852025533333332
mp-1214822,AlCo2Ni,-0.2441778924999997
mp-1015811,AlCo2Si,0.4356756000000006
mp-1080667,AlCo3,-0.20243744375000008
mp-1163946,AlCo3(SiO4)3,-2.2379354384210526
mp-10037,AlCo3C,-0.22163146374999912
mp-1041829,AlCo3F15,-2.110432936992105
mvc-1601,AlCo3Se2ClO8,-1.5551638263631664
mp-1228933,AlCo4,-0.02848480600000016
mp-1045723,AlCo4(CuO4)3,-1.2027783982499989
mvc-15886,AlCoF5,-3.2013636672785712
mp-1229178,AlCoNF6,-2.1579804805022222
mp-1228972,AlCoNi6,-0.1991913649999999
mp-1196580,AlCoP2C2(NO4)2,-1.8161723933778573
mp-1229214,AlCoP2NO8,-2.0438913564742847
mp-1229047,AlCoW,-0.2143731174999992
mp-1041805,AlCr(WO4)2,-2.4322803816666667
mp-1699,AlCr2,-0.1288684266666659
mp-9956,AlCr2C,-0.17993088093749954
mp-773322,AlCr2O4,-2.5247580707142867
mp-1096575,AlCr2W,3.7679236475000017
mp-637575,AlCr3B4,-0.4508862633333335
mp-1044968,AlCr3O6,-2.5525586205
mp-1229068,AlCr3O8,-2.03220977
mp-1045721,AlCr4(CuO4)3,-1.7131892587499995
mp-1228999,AlCr4AgS8,-1.0966080744642863
mp-1228960,AlCr4CuS8,-1.1334647737500012
mp-1229004,AlCr4CuSe8,-0.5634723399107132
mp-1228967,AlCr4GaC2,-0.1581492046874997
mp-1228922,AlCr6Si,-0.22024211125000007
mp-10883,AlCrCo2,-0.2326979674999992
mp-16494,AlCrCu2,-0.0025114474999989858
mvc-15887,AlCrF5,-3.4274367072785705
mp-16495,AlCrFe2,-0.16282598499999956
mp-1229097,AlCrFeO4,-2.600037408571428
mp-1228945,AlCrGe,-0.07374171999999864
mp-1228985,AlCrNi,-0.03808872333333232
mp-10885,AlCrNi2,-0.26086043250000035
mvc-14409,AlCrO3,-2.7221969027500004
mp-770002,AlCrO4,-2.3987394425
mp-1097410,AlCrOs2,3.675254817500001
mp-862781,AlCrRu2,-0.3532555999999989
mp-1097386,AlCrTc2,3.2684455975000013
mp-2500,AlCu,-0.21323134599999988
mp-1228984,AlCu(PSe3)2,-0.2780696855848213
mp-1047770,AlCu(WO4)2,-2.1820575891666665
mp-1182967,AlCu2AsO12,-0.7884733434375004
mp-532554,AlCu2Sb(HO)12,-1.4762375314323817
mp-1045607,AlCu3(AgO3)4,-0.5924346682500001
mp-1045637,AlCu3(BiO3)4,-1.2049447232500001
mp-1045851,AlCu3(MoO3)4,-1.629990855749999
mp-1045829,AlCu3(NiO3)4,-0.9069658167500008
mp-1045633,AlCu3(SbO3)4,-1.3966274932499998
mp-1045632,AlCu3(SnO3)4,-1.5796991762500014
mp-1045892,AlCu3(WO3)4,-1.5480726217499998
mp-1182880,AlCu3HgSe4,-0.21083620270833275
mp-1182885,AlCu4,-0.11401486449999965
mp-1202327,AlCu4SbPb6S2(Cl2O13)2,-1.2935851240605674
mp-1229293,AlCu6H12SClO19,-1.2704956392378122
mp-1215129,AlCu6SClO19,-0.4117905652168749
mp-560271,AlCuAsO5,-2.05331467609375
mp-867306,AlCuAu2,-0.2559781874999998
mp-1102536,AlCuBr4,-0.8610969341666662
mp-28020,AlCuCl4,-1.5614070471733337
mvc-13497,AlCuF5,-2.944094850135714
mp-706670,AlCuH28S2ClO22,-1.558345171822637
mp-1228938,AlCuNi6,-0.1847013500000001
mp-3748,AlCuO2,-2.4290188156249988
mp-776172,AlCuO3,-2.065674981250001
mp-1214974,AlCuO4F,-1.2994636608842849
mp-866296,AlCuPd2,-0.6177606650000005
mp-12550,AlCuPt2,-0.7043843125000002
mp-1183191,AlCuRh2,-0.5444205374999997
mp-4979,AlCuS2,-1.14396975328125
mp-8016,AlCuSe2,-0.6272769955468753
mp-1228961,AlCuSnS4,-1.0046906623214291
mp-1229027,AlCuSnSe4,-0.5044910541964285
mp-8017,AlCuTe2,-0.33852610875
mp-468,AlF3,-3.890567094642501
mp-2658,AlFe,-0.3304594550000006
mp-1043216,AlFe(WO4)2,-2.3271516054166668
mp-985579,AlFe2,-0.1319079366666666
mp-1096865,AlFe2BO5,-2.538961842824074
mp-1183187,AlFe2Ge,-0.20968494624999945
mp-672259,AlFe2Mo,-0.1689631475000004
mp-31186,AlFe2Ni,-0.0965746774999996
mp-862288,AlFe2W,-0.20188096000000044
mp-1183162,AlFe3,-0.1940763099999998
mp-1215165,AlFe3(SO7)6,-0.5951211319591345
mvc-12796,AlFe3(SiO4)3,-2.522222729210525
mp-1206715,AlFe3B,-0.14520651333333348
mp-22793,AlFe3C,-0.16182443175000005
mp-1041859,AlFe3F15,-2.4090259233078952
mp-1206123,AlFe3H,-0.1976294157239991
mp-1206767,AlFe3N,-0.3273993124759997
mp-1206753,AlFe3O,0.2538944877500001
mp-1045601,AlFe3Se2ClO8,-1.6764632396964998
mp-1045728,AlFe4(CuO4)3,-1.4296044787500009
mp-1238368,AlFe4Hg2O2F,-0.3865942973689983
mp-1229147,AlFeB2(PbO4)2,-2.444677843809523
mp-10884,AlFeCo2,-0.3549675375000003
mp-561238,AlFeF5,-3.3882549387071426
mp-1183163,AlFeIr2,-0.4697604350000004
mp-1178577,AlFeO3,-2.6434400357499994
mp-505180,AlFePO5,-2.8164732369866075
mp-861953,AlFeRh2,-0.5976034774999999
mp-1096308,AlFeRu2,3.2106539875
mp-1097427,AlFeTc2,3.5056833724999987
mp-1228950,AlGa(CuSe2)2,-0.5497838342968748
mp-1228948,AlGa(PO4)2,-2.866922763690475
mp-1228994,AlGa2Bi(BO3)4,-2.640715648333334
mp-1183208,AlGa3,0.052672972500000366
mp-1228943,AlGa3N4,-0.8908273311899997
mp-1228891,AlGaAs2,-0.4069265975
mp-1214875,AlGaBr4,-0.62641165875
mp-541111,AlGaCl4,-1.6838702971733337
mp-1228893,AlGaCo2,-0.4398701099999993
mp-1229072,AlGaCu2(AsO5)2,-1.8749690251562496
mp-1183158,AlGaIr2,-0.6463759749999998
mp-1228894,AlGaN2,-1.1190977636899992
mp-1183173,AlGaNi2,-0.5077755824999999
mp-1228918,AlGaNi6,-0.35755313249999965
mp-772898,AlGaO3,-2.83348130725
mp-1228888,AlGaP2,-0.5030450860714284
mp-1095917,AlGaPd2,1.1911960650000002
mp-1183218,AlGaRu2,-0.4861049500000005
mp-1228895,AlGaSb2,-0.15051627249999955
mp-568107,AlGe2P(H3C)8,-0.2631459841395238
mp-1183203,AlGe3,0.2637919712499999
mp-1228992,AlGe3Mo2,-0.2156901574999992
mp-1228900,AlGeMo,-0.2672914838888885
mp-867904,AlGeRu2,-0.4887267612500006
mp-1200757,AlH10C3N,-0.2912964763219994
mp-24618,AlH10N2OF5,-1.7943442663505262
mp-730446,AlH10SO9F,-1.838515950918296
mp-722527,AlH11SO10,-1.744824952451412
mp-1214891,AlH12,0.10518225242769247
mp-1204288,AlH12(CN)3,-0.3178557985173674
mp-23743,AlH12(ClO2)3,-1.5637975379872726
mp-1202807,AlH12(NF2)3,-1.6396845964872724
mp-1203296,AlH12(NO5)3,-1.403743539817096
mp-721369,AlH12(OF)5,-1.6643929285060868
mp-1228596,AlH12C4NF4,-1.0974777197990908
mp-572874,AlH14C4NOF4,-1.0467012093628
mp-1197821,AlH14SeNO14,-1.476711859488831
mp-541900,AlH15(NF)6,-1.2758456078828568
mp-1229104,AlH15(OF)6,-1.8833819285335704
mp-1199829,AlH15Br3N5,-0.785359945987499
mp-699469,AlH15N5Cl3,-0.9102143753533316
mp-1201838,AlH16(C3O7)2,-1.419722685518109
mp-1229242,AlH16C2S2NO14,-1.3778961492618056
mp-695979,AlH18(BrO6)3,-0.8867389309415004
mp-707784,AlH18(NO6)3,-1.3989109025574995
mp-24554,AlH18C3(N3F2)3,-1.1610268388167564
mp-1197837,AlH18C6N2Cl3,-0.5426696572399995
mp-721813,AlH18CS2N3O14,-1.4778796223079058
mp-24135,AlH18Ru(NF)6,-1.2848629584087492
mp-708992,AlH20C2S2NO14,-1.4181640615726243
mp-603609,AlH20Ru(Cl3O5)2,-1.4426343841963147
mp-1201938,AlH21C3(SO5)3,-1.3657490153071512
mp-643387,AlH2PbO2F3,-2.6008662509233327
mp-1106356,AlH3,-0.1206726970899994
mp-24764,AlH36C12S6(ClO2)3,-0.6318633474527351
mp-24279,AlH36C12S6(IO2)3,-0.5758977465186721
mp-759356,AlH3NCl3,-1.3859640172524998
mp-699431,AlH4(SeO4)2,-1.5963112037778326
mp-696815,AlH4NF4,-2.273134414662
mp-1214960,AlH5(SeO4)2,-1.658749739705469
mp-1214861,AlH6,1.0305390333257145
mp-1200831,AlH6C2SeCl3,-0.7869570661610575
mp-740718,AlH6N2Cl3,-1.1575037943758335
mp-1198123,AlH7C2SCl4,-0.8985832562461666
mp-1202937,AlH8C2N,-0.2933541341394441
mp-625054,AlHO2,-2.69595027653
mp-1182875,AlHg2O2F5,-1.9504102973450004
mp-568001,AlHg2SbCl4,-1.2543437388175
mp-1095623,AlHg3(OF3)2,-2.0895671766366672
mp-1182904,AlI2NO15,-0.2686541632173681
mp-30930,AlI3,-0.6723465387500003
mp-1106104,AlI3N5,1.167582131455556
mp-27935,AlICl6,-1.3068610718200002
mp-1214837,AlIO,-2.152998494583334
mp-1228935,AlIn(AgS2)2,-0.924742633697917
mp-1228926,AlIn(AgSe2)2,-0.5192136034635415
mp-1229046,AlIn(CuSe2)2,-0.5260188884635421
mp-1229179,AlIn3(CuSe2)4,-0.4768603824218749
mp-631543,AlInB,1.0553078300000005
mp-1214853,AlInBr4,-1.029687617222222
mp-638061,AlInCl4,-1.7367371539788892
mp-1228995,AlInCuO4,-2.113133169761904
mp-1228917,AlInGaSb3,-0.12109746972222207
mp-571260,AlInI4,-0.6402653751388891
mp-754157,AlInO3,-2.692971659416668
mp-504482,AlInS3,-1.2183417154375011
mp-1228890,AlInSb2,-0.11840215583333302
mp-862787,AlInSe3,-0.6965850668229171
mp-1183133,AlIrO3,-1.2110280387500012
mp-1041813,AlMo(WO4)2,-2.35083028875
mp-259,AlMo3,-0.2275736749999986
mp-1041498,AlMo3F15,-2.8516219898868416
mvc-1752,AlMo3Se2ClO8,-1.4818687390298342