task_id,composition,formation_energy_per_atom
mvc-13059,Ca3Cu6(AsO4)8,-1.6044193980102033
mvc-11883,Ca3Cu6(PO4)8,-2.2311927157069973
mp-505151,Ca3CuIrO6,-2.3057949331818186
mp-558434,Ca3CuRhO6,-2.3192732709090897
mp-1183523,Ca3Dy,0.13572066812500028
mp-1227740,Ca3Er2(SnS4)3,-1.713422534312501
mp-41109,Ca3Er3Ge2BO13,-3.3409337211553036
mp-1183960,Ca3Eu,0.027862799374999803
mp-640879,Ca3Fe2(GeO4)3,-2.59168031975
mvc-12764,Ca3Fe2(MoO6)2,-2.499724329342105
mvc-12765,Ca3Fe2(ReO6)2,-2.500481329605264
mvc-14254,Ca3Fe2(RhO6)2,-1.7805204525
mvc-14981,Ca3Fe2(SbO6)2,-2.261602675131579
mp-565716,Ca3Fe2(SeO3)6,-1.9422430536745685
mvc-4550,Ca3Fe2(Si2O7)2,-3.065600471521738
mp-19535,Ca3Fe2(SiO4)3,-3.0803797776250006
mvc-13104,Ca3Fe2(WO6)2,-2.571263351973685
mp-1214034,Ca3Fe2Br2O5,-2.3811489207291667
mp-566329,Ca3Fe2Cl2O5,-2.5598213737725
mvc-3672,Ca3Fe2O7,-2.5052743751041664
mp-1047531,Ca3Fe3(AsO4)4,-2.2621294872115385
mp-1214233,Ca3Fe3(SbO6)2,-2.424649531624999
mp-1043101,Ca3Fe4(MoO4)6,-2.2682942092567564
mp-1042781,Ca3Fe4(SbO4)6,-2.072796413040541
mp-1043059,Ca3Fe4(WO4)6,-2.2574047416891903
mp-1227996,Ca3Fe7(SiO4)6,-2.7589446804375
mp-1029659,Ca3FeN3,-0.933875704234285
mp-18843,Ca3FeRhO6,-2.519138867727273
mvc-15035,Ca3Ga2(FeO5)2,-2.3844833032352937
mp-1227716,Ca3Ga2(Ge2O7)2,-2.5846529104347824
mp-1019565,Ca3Ga2(GeO4)3,-2.6710903527500003
mp-14050,Ca3Ga2(SiO4)3,-3.156832801000001
mp-1228716,Ca3Ga2(SnO4)3,-2.6014315796250003
mp-695070,Ca3Ga2Si(SnO6)2,-2.827837639125
mp-1214159,Ca3Ga3(SnO6)2,-2.5760299146250007
mp-1214023,Ca3Ga3Ge3O14,-2.5198066319565218
mp-31481,Ca3Ga3Ir2,-0.6206092000000005
mp-607230,Ca3Ga3Rh2,-0.643100295
mp-29226,Ca3Ga4O9,-2.7513734169010418
mp-30473,Ca3Ga5,-0.5075995609374999
mp-12611,Ca3Ga8,-0.4319464584090911
mp-541062,Ca3GaAs3,-1.0096559307142858
mp-1029943,Ca3GaN3,-0.9519491763771432
mp-1228401,Ca3GdAl8,-0.3291618252083328
mp-555273,Ca3Ge(ClO2)2,-2.928653315152
mp-1202780,Ca3Ge13Ir4,-0.42547975887499945
mp-1201179,Ca3Ge13Rh4,-0.4542724486250002
mp-1214045,Ca3Ge2Au9,-0.5275203548214284
mvc-4268,Ca3Ge3(BiO6)2,-2.473064670624999
mvc-4467,Ca3Ge3(MoO6)2,-2.622936793750001
mp-1214274,Ca3Ge3(RhO6)2,-2.3547464176250004
mvc-4270,Ca3Ge3(SbO6)2,-2.4500578358750005
mvc-4469,Ca3Ge3(WO6)2,-2.507104195250001
mp-1227773,Ca3Ge3Au8,-0.5150351037500001
mp-1204241,Ca3Ge4,-0.5717405667857139
mp-1214042,Ca3Ge4Au7,-0.5156939712499999
mp-11822,Ca3GeN,-0.8168492599759993
mp-17193,Ca3GeO,-1.7122177107500005
mp-1214065,Ca3GeO4F,-2.9844870509655554
mp-1227961,Ca3Hf2AlFeSiO12,-3.4736989115
mp-743575,Ca3Hf2Fe2SiO12,-3.272370392375
mp-1214066,Ca3Hf3AgF20,-3.9359408785666665
mp-15003,Ca3HfSi2O9,-3.5995310892500005
mp-571484,Ca3Hg,-0.1904523600000001
mp-11288,Ca3Hg2,-0.4704206255000001
mp-1183498,Ca3Ho,0.15008705062499986
mp-1227754,Ca3HoMn4O12,-2.665425175816999
mp-1214247,Ca3In2(GeO4)3,-2.6105271948333324
mp-14052,Ca3In2(SiO4)3,-3.093256392583334
mp-757442,Ca3In2O6,-2.7082788444696977
mp-606503,Ca3InAu3,-0.7545879122619051
mp-614572,Ca3InP3,-0.9577086424659872
mp-1214026,Ca3La2Sb3O14,-2.8558916597727286
mp-6709,Ca3La3(BO3)5,-3.439657362099359
mp-1229300,Ca3La32(OsI12)5,-1.3748449731749997
mp-706245,Ca3La5Mn6(CuO12)2,-2.6973298794565004
mp-743745,Ca3La5Mn7CrO24,-2.8638684579805003
mp-694928,Ca3La5Mn7FeO24,-2.8388020529805003
mp-39207,Ca3La5Mn7NiO24,-2.7815213047304987
mp-744126,Ca3La7Ti5Cr5O30,-3.3981779143666677
mp-1227846,Ca3LaMn2(IrO6)2,-2.4401710809710004
mp-1227732,Ca3LaMn4O12,-2.651514462566999
mp-1227663,Ca3LaSi8,-0.4580565227083333
mp-1227769,Ca3LaTi2Cr2O12,-3.239928207041666
mp-1183480,Ca3Lu,0.1514109943749995
mp-1214423,Ca3Lu2(GeO4)3,-3.155245556
mp-1094857,Ca3Mg,-0.010533208125000249
mp-558209,Ca3Mg(SiO4)2,-3.3989317317857126
mp-1214140,Ca3Mg2(AsO4)3,-2.6222547535000005
mp-1227854,Ca3Mg2Fe(CO3)6,-2.4880553699166663
mp-1227816,Ca3Mg2Ni13,-0.1615081984722227
mp-646967,Ca3Mg3(PO4)4,-3.2101712591437725
mp-1094707,Ca3Mg4Zn11,-0.12565266847222212
mp-1227744,Ca3Mg5(SiO3)8,-3.3252496838125016
mp-1227888,Ca3Mg9Al8(SiO4)12,-3.3165397620312502
mp-1227755,Ca3MgFe2(CO3)6,-2.31625776125
mp-1227887,Ca3MgNi14,-0.13830907402777687
mp-1183485,Ca3Mn,0.37845930937500016
mvc-13130,Ca3Mn2(FeO5)2,-2.332986834230588
mvc-12044,Ca3Mn2(GaO5)2,-2.4759012739364703
mp-744259,Ca3Mn2(GeO4)3,-2.599540862971
mvc-14930,Ca3Mn2(IrO6)2,-2.079912966811579
mvc-10908,Ca3Mn2(SbO6)2,-2.346036638390526
mp-565228,Ca3Mn2(Si2O7)2,-3.1159980687791298
mp-19597,Ca3Mn2(SiO4)3,-3.061644823096
mvc-14240,Ca3Mn2(WO6)2,-2.594664824706316
mp-1214143,Ca3Mn2O12,-1.5079867851129418
mp-19042,Ca3Mn2O7,-2.656276564014167
mp-1227969,Ca3Mn2SbO9,-2.5752330940446666
mp-1228190,Ca3Mn2WO9,-2.7057157740446653
mp-1047495,Ca3Mn3(AsO4)4,-2.3420676830915372
mp-1227724,Ca3Mn4BiO12,-2.3523720638170005
mp-1003639,Ca3Mn4O8,-2.4233350919226675
mp-1195426,Ca3MnCSO25,-0.6035064933071767
mp-704674,Ca3MnCoO6,-2.5614585755418178
mp-1214191,Ca3MnCuO6,-2.5293549041781813
mp-1204717,Ca3MnH12S2O17,-2.0318228094650004
mp-1214341,Ca3MnH3(SO7)2,-1.4592092195628263
mp-14763,Ca3MnN3,-1.0310335874485708
mp-25543,Ca3MnNiO6,-2.529626875087273
mp-1227657,Ca3MnO4,-2.9722309910574984
mp-1182615,Ca3MnS2O17,-1.513017777949348
mp-1117615,Ca3Mo2O7,-2.797593412187501
mp-1029719,Ca3MoN3,-0.9885848478057144
mp-640228,Ca3Nb2CoO9,-3.0766752329166662
mp-554801,Ca3Nb4(O6F)2,-3.3753047404704764
mp-1214029,Ca3NbO6,-3.1269974515000003
mp-1183491,Ca3Nd,0.09152650500000004
mp-1214040,Ca3Nd2Sb3O14,-2.828832058636364
mvc-15011,Ca3Nd4Nb6(FeO14)2,-3.136249016686045
mp-1214498,Ca3Nd8(RuO6)4,-2.9726451137820518
mp-673801,Ca3NdF9,-4.182297836977692
mp-1227690,Ca3NdMn2O8,-2.8903702079942866
mp-1227759,Ca3NdMn4O12,-2.6441178429420003
mvc-4441,Ca3Ni2(GeO4)3,-2.245425939750001
mvc-14936,Ca3Ni2(WO6)2,-2.2199643477631583
mp-1182724,Ca3Ni2H8C10(S4O13)2,-1.1012656498940352
mvc-3715,Ca3Ni2O7,-1.9581850426041665
mp-1047505,Ca3Ni3(AsO4)4,-2.0504198514423084
mp-8308,Ca3Ni7B2,-0.33620309465277803
mp-1183510,Ca3Os,0.4100242781249994
mp-1013547,Ca3P2,-0.7295095873571433
mp-707081,Ca3P4H20(NO10)2,-1.9800678146577841
mp-29342,Ca3PCl3,-2.2663719720604085
mp-27272,Ca3PI3,-1.5248623860204078
mp-11824,Ca3PN,-1.0968184694045715
mp-30479,Ca3Pb,-0.379529223125
mp-771827,Ca3Pb3I14,-0.9593669048749998
mp-20273,Ca3PbO,-1.7040590667500006
mp-1227810,Ca3PbSe4,-1.6435295946093755
mp-1106061,Ca3Pd,-0.4418576737500004
mp-1104661,Ca3Pd2,-0.6407684071666669
mp-1183509,Ca3Pm,0.1003024149999998
mp-1214039,Ca3Pr2Sb3O14,-2.821404576136364
mp-984698,Ca3Pt2,-0.8601465858333331
mp-1030245,Ca3ReN4,-1.014204791467777
mp-9457,Ca3ReO6,-2.9410922697500004
mp-3258,Ca3Ru2O7,-2.416195310104168
mvc-14203,Ca3Sb2O7,-2.5895940471875005
mp-1013544,Ca3SbAs,-0.9137290724999996
mp-1214080,Ca3SbI3,-1.441071906785714
mp-1013550,Ca3SbP,-0.9866315379285708
mp-21989,Ca3Sc2(GeO4)3,-3.1217117205
mp-6255,Ca3Sc2(SiO4)3,-3.6130391390000014
mp-645593,Ca3ScCoO6,-3.047777208636364
mp-1227921,Ca3ScFe(SiO4)3,-3.240187291125001
mp-540868,Ca3Si(ClO2)2,-3.2884049044020003
mp-696156,Ca3Si2(H3O5)2,-2.5784944465104767
mp-542138,Ca3Si2Ni3,-0.5086228040625009
mp-585516,Ca3Si2O7,-3.478578692604166
mp-15095,Ca3Si2SnO9,-3.2153547929166666
mp-1157153,Ca3Si3(AgO6)2,-2.5921342025
mp-1163927,Ca3Si3(BiO6)2,-2.946702262125
mp-1170750,Ca3Si3(MoO6)2,-3.113342528125
mp-1154587,Ca3Si3(NiO6)2,-2.737675535125001
mvc-3679,Ca3Si3(SbO6)2,-2.9189538771250017
mvc-3709,Ca3Si3(SnO6)2,-2.9377276210000005
mp-1154711,Ca3Si3(WO6)2,-2.9983771749999995
mp-1214046,Ca3Si4,-0.4674328255952382
mvc-4273,Ca3Si4(AgO7)2,-2.714594318695652
mvc-4336,Ca3Si4(BiO7)2,-2.9478218963043488
mvc-5059,Ca3Si4(MoO7)2,-3.0449615552173914
mvc-4567,Ca3Si4(NiO7)2,-2.818260806956521
mvc-4317,Ca3Si4(SbO7)2,-2.9399272463043484
mvc-4508,Ca3Si4(SnO7)2,-3.0034874776086964
mp-568050,Ca3SiBr2,-1.23195059375
mp-1196628,Ca3SiCSO24,-0.6603884575104161
mp-1199820,Ca3SiCSO25,-1.045503883760081
mp-1214820,Ca3SiH14CSO10,-1.3787458164497508
mp-541025,Ca3SiH30CSO25,-1.7891670652485652
mp-11649,Ca3SiO,-1.6202803337500007
mp-1214083,Ca3SiO4F,-3.2936491726322217
mp-641754,Ca3SiO5,-3.434776401342593
mp-1196842,Ca3SiS2O25,-1.0025389476411282
mp-1183494,Ca3Sm,0.10667279875000002
mp-1227761,Ca3SmMn4O12,-2.651987966692
mp-1183489,Ca3Sn,-0.439713581875
mp-1200211,Ca3Sn13Ir4,-0.43274734337499937
mp-1214141,Ca3Sn13Pt4,-0.5060138193749999
mp-4363,Ca3Sn13Rh4,-0.5014928953750001
mvc-4258,Ca3Sn2(GeO4)3,-2.485550181625
mvc-14201,Ca3Sn2O7,-2.786800960104167
mp-1047561,Ca3Sn3(AsO4)4,-2.193036044519231
mp-866621,Ca3Sn4S11,-1.2266782773437503
mp-1100790,Ca3Sn5S13,-1.1252162526815488
mp-984605,Ca3SnH2,-0.6824431999566668
mp-637179,Ca3SnN,0.6662838260239999
mp-29241,Ca3SnO,-1.7743870477500003
mp-1100367,Ca3SnS5,-1.7698554090162035
mvc-10909,Ca3Ta2Mn2O12,-2.9249979010221066
mp-769266,Ca3Ta2O8,-3.4923825132692303
mp-560378,Ca3Ta4(O6F)2,-3.616182620470477
mp-1043066,Ca3Ta6(FeO6)4,-2.9559492108783787
mp-6853,Ca3TaGa3(SiO7)2,-3.097105251304348
mp-1183522,Ca3Tb,0.12899215979166634
mp-1227679,Ca3TbMn4O12,-2.662773345233666
mp-5279,Ca3TeO6,-2.828396058
mp-1227734,Ca3Ti(FeO4)2,-2.916257313154763
mvc-4198,Ca3Ti2(GeO4)3,-2.9152966007916676
mvc-4143,Ca3Ti2(Si2O7)2,-3.356117596666667
mp-1154470,Ca3Ti2(SiO4)3,-3.403143654166668
mp-43094,Ca3Ti2AlSi3O14F,-3.514620571646806
mp-4163,Ca3Ti2O7,-3.5281616016319446
mvc-6200,Ca3Ti3(AsO4)4,-2.5487389787500003
mp-1214263,Ca3Ti3Cr2O12,-3.2866716577500013
mp-1229240,Ca3Ti3Si2GeO15,-3.348516092135416
mp-1227856,Ca3Ti4PbO12,-3.344738618708333
mp-43114,Ca3TiAl2Si3O13F2,-3.538616877824861
mp-558370,Ca3TiBe2Si2(As3O10)2,-2.6794196679166657
mp-997184,Ca3TiNiO6,-2.9437105842424245
mp-984744,Ca3Tl,-0.21638366187500052
mp-9216,Ca3Tl2O6,-2.331572142954545
mp-765585,Ca3Tl4O9,-1.9480401489843755
mp-1189230,Ca3Tl5,-0.32843221406250045
mp-1214010,Ca3TlO5,-2.4750521998611106
mp-1214304,Ca3Tm2(GeO4)3,-3.14238525925
mp-1183533,Ca3U,0.707635801875
mp-675286,Ca3UN4,-1.4712284727524991
mp-14252,Ca3UO6,-3.6351333764999993
mp-1183502,Ca3V,0.4800698268749999
mp-763453,Ca3V10O25,-2.5950945645723693
mvc-10905,Ca3V2(BiO6)2,-2.4675394446052628
mvc-4394,Ca3V2(GeO4)3,-2.7065685591250004
mp-1171437,Ca3V2(Si2O7)2,-3.2144807847826082
mp-1163934,Ca3V2(SiO4)3,-3.199938581875
mp-1117603,Ca3V2O7,-3.0040380646875
mp-542076,Ca3V2O8,-2.9889548186538457
mp-1041545,Ca3V3(AsO4)4,-2.314835859326924
mp-1214146,Ca3V3(CoO6)2,-2.5657093291250006
mp-1214197,Ca3V3(CuO6)2,-2.5254523703750005
mp-1214162,Ca3V3(NiO6)2,-2.5196597690000004
mp-1042908,Ca3V6(FeO6)4,-2.4810884822297297
mp-9029,Ca3VN3,-1.2246084306628566
mp-1183518,Ca3W,0.8865887106249999
mvc-3726,Ca3W2O7,-2.7319935621875
mp-772583,Ca3W2O9,-2.775547918125
mp-1029782,Ca3W3N5,-0.7812468503999991
mp-565908,Ca3WCl2O5,-2.926765437979089
mp-781505,Ca3WO6,-3.0891978164999996
mp-1183515,Ca3Y,0.12823873937499994
mp-669331,Ca3Y2(GeO4)3,-3.1000239778750003
mp-1214208,Ca3Y2(SiO4)3,-3.5864578265000007
mp-744910,Ca3Y9Al18CrSiO48,-3.559257898406252
mp-694012,Ca3YAl3B4O15,-3.343987937900641
mp-695475,Ca3YGa3B4O15,-3.0074372626121786
mp-743608,Ca3YMn3B4O15,-2.9420171954152554
mp-1227620,Ca3YTi4O12,-3.612053816708333
mp-1214302,Ca3Yb2(GeO4)3,-2.79297167725
mp-676491,Ca3Yb2Zr3Ti8O28,-3.2167343120643945
mp-30485,Ca3Zn,-0.12569960687500004
mp-569617,Ca3Zn2(CuP2)2,-0.7900966255519477
mp-14778,Ca3Zn3(TeO6)2,-2.3340645738749997
mp-1019566,Ca3ZnGe5O14,-2.5002496995652184
mp-1079594,Ca3ZnSe4,-1.4530081939843749
mp-1227925,Ca3Zr2AlFeSiO12,-3.3971301882500016
mp-743696,Ca3Zr2Fe2SiO12,-3.1973529103750016
mp-756052,Ca3Zr2O7,-3.5794760259375007
mp-15004,Ca3ZrSi2O9,-3.5555281377500005
mp-1214451,Ca4(CuO2)5,-1.9804628221052625
mp-697126,Ca4(H4Rh)3,-0.6781218849178946
mp-28925,Ca4(PPd)5,-0.9718525464795921
mp-1228746,Ca43Al16Pb13,-0.4194765564236107
mp-686702,Ca4Al11Si13(AgO16)3,-3.125927098607595
mp-707897,Ca4Al2H22CO20,-1.98529700721204
mp-1227719,Ca4Al3CrSiBO14,-3.2365747760069437
mp-30174,Ca4Al51Cr7,-0.16744451758064505
mp-1227826,Ca4Al5CrSi6(HO13)2,-3.229572044085
mp-1228294,Ca4Al5FeSi6(HO13)2,-3.208952041130455
mp-1227669,Ca4Al6CrO16,-3.2447464681481484
mp-578961,Ca4Al6MoO16,-3.3046301499999995
mp-7531,Ca4Al6O13,-3.4523088550543486
mp-8876,Ca4Al6SO12,-3.402032112133152
mp-1019575,Ca4Al6SO16,-3.336199343391204
mp-15312,Ca4Al6TeO12,-3.3407413123913043
mp-579270,Ca4Al6WO16,-3.303851403148148
mp-1228916,Ca4AlSiH24SO16F13,-2.287550568773541
mp-1227673,Ca4AlZn43,-0.1631695030208332
mp-8789,Ca4As2O,-1.8194962473214285
mp-1194887,Ca4As3,-1.1636819119642858
mp-1199574,Ca4As3H9O16,-2.125940715158749
mp-31234,Ca4As7Ir8,-0.6297346144736838
mp-1214270,Ca4Be2Al2Si9O28,-3.265078366555556
mp-1227653,Ca4Be4P4O17F3,-3.2292937824497328
mp-1214078,Ca4Bi2Br4O3,-1.0926190387500003
mp-551873,Ca4Bi2O,-1.6073666730357148
mp-5251,Ca4CN4,-1.0211432395299995
mp-1227562,Ca4Cd3Au,-0.4801153918750003
mp-1227574,Ca4Cd3Au5,-0.6441364787500001
mp-1197240,Ca4Ce2TiSi4(BO6)4,-3.374225983418804
mp-23326,Ca4Cl6O,-2.8891096668918177
mp-1227707,Ca4Co3Si8NiO24,-2.95793823325
mp-1046609,Ca4Co5(TeO6)3,-1.996286410583333
mp-1227711,Ca4CoSi8(NiO8)3,-2.9218862605000004
mp-1046653,Ca4Cr5(TeO6)3,-2.2751134874166667
mp-1227753,Ca4CrFe3O10,-2.611928775416666
mp-1046533,Ca4Cu5(TeO6)3,-1.7976340369166672
mp-1229301,Ca4Er2(Sn5Pt3)3,-0.7558385192499998
mp-1214050,Ca4ErB3O10,-3.40909546375
mp-1227730,Ca4Fe3As8Pt,-0.6247230918749995
mp-1227865,Ca4Fe5(Si3O14)2,-2.457294987325581
mp-1046805,Ca4Fe5(TeO6)3,-2.150626252250001
mp-504795,Ca4Fe9O17,-2.2740095833750007
mp-1228210,Ca4Ga3FeO10,-2.738677383194444
mp-1227558,Ca4GaSi3,-0.5276809600000001
mp-1227571,Ca4GaSn3,-0.6115808468749999
mp-6943,Ca4GdB3O10,-3.3916030023611112
mp-1227613,Ca4Ge3Au5,-0.7198981737500004
mp-1203676,Ca4Ge3O11,-2.6058538584027766
mp-29808,Ca4GeN4,-0.9830997785577776
mp-1227890,Ca4H16C8O25,-1.7594080437579245
mp-1029730,Ca4HfN4,-1.3360765666133332
mp-12541,Ca4Hg9,-0.4015204055769232
mp-755949,Ca4I6O,-1.8659410369318181
mp-20419,Ca4In2N,-0.7036085220066666
mp-645719,Ca4In3Au10,-0.6119616108823531
mp-4100,Ca4IrO6,-2.7473728415909093
mp-1227770,Ca4La2Zr4O15,-3.501156990749999
mp-697834,Ca4La4Mn7NiO24,-2.7145434016679992
mp-6076,Ca4LaB3O10,-3.3937277434722213
mp-1227644,Ca4Mg3Fe(SiO3)8,-3.2881395562500004
mp-643070,Ca4Mg3H14,-0.4937162466990474
mp-1227614,Ca4Mg3Si8NiO24,-3.2478249867499995
mp-1102584,Ca4Mg4Fe3,0.3912694009090911
mp-644264,Ca4Mg4Fe3H22,-0.5089498299890911
mp-1227623,Ca4Mg4P4O17F3,-3.270550454012232
mp-1227792,Ca4Mg4V3AsO20,-2.6042422675
mp-1227598,Ca4MgAl2Si3O14,-3.424496251979168
mp-640340,Ca4MgAl3,-0.21409004156249972
mp-1193253,Ca4MgB4(CO9)2,-2.4849995640229894
mp-697563,Ca4MgB4H6(CO9)2,-2.523553996525334
mp-1227573,Ca4MgSi8(NiO8)3,-3.0185301620000016
mp-1214009,Ca4MgSn3,-0.6173059793749998
mp-1227726,Ca4Mn2Al2O11,-2.91085854293
mp-18952,Ca4Mn2O7,-2.8153862565900005
mp-566589,Ca4Mn3B3CO15,-2.8029308111684608
mp-565885,Ca4Mn3O10,-2.613440388845882
mp-1227588,Ca4Mn3SbO12,-2.559344033644
mp-698549,Ca4Mn4O11,-2.5344766811889463
mp-1227877,Ca4Mn5Al(Si3O14)2,-2.7421206015863646
mp-1227666,Ca4Mn6Si5O28,-2.3817122735060465
mp-1227550,Ca4MnFe11Si8(HO9)4,-2.570895980788125
mp-1227204,Ca4MnFe3O10,-2.5682983799144434
mp-31016,Ca4Nb2O9,-3.35068302375
mp-1227135,Ca4Nb6O21,-2.8269680553629017
mp-1204714,Ca4NbGaO8,-3.159005705178572
mp-1214008,Ca4NdB3O10,-3.3807405455555566
mp-1214129,Ca4Ni,0.2335346029999997
mp-1190866,Ca4Ni20H,-0.10789584954480004
mp-28742,Ca4Ni3C5,-0.18103796447916665
mp-1192309,Ca4Ni4Ge3,-0.5161025563636362
mp-1046817,Ca4Ni5(TeO6)3,-1.8587164422500004
mp-5380,Ca4P2O,-1.7777486007908163
mp-5263,Ca4P2O9,-3.3430073223690484
mp-559537,Ca4P6O19,-3.0853961122967983
mp-31233,Ca4P7Ir8,-0.8808844442105264
mp-1214048,Ca4Pd,-0.04470470800000008
mp-10299,Ca4PdO6,-2.6883226193181824
mp-8568,Ca4PtO6,-2.7255799334090907
mp-1214055,Ca4Rh,0.06564860299999964
mp-1214426,Ca4Rh6Pb19,-0.01524268793103447
mp-13660,Ca4Sb2O,-1.7334058430357138
mp-35269,Ca4Sb2S,-1.3669747412946427
mp-604909,Ca4Si2H2CO11,-2.968718929237
mp-560163,Ca4Si2O7F2,-3.647369345908667
mp-1227192,Ca4Si3(BO4)5,-2.8919527436979173
mp-1197100,Ca4Si3H2O11,-3.1554572251744992
mp-1202749,Ca4Si3O11,-3.1621383985416665
mp-17185,Ca4Si3Pd4,-0.8115909581818186
mp-558268,Ca4Si6Pb6Cl2O21,-2.8165615101992305
mp-1214557,Ca4Si6W3O19,-2.663963138710937
mp-1019576,Ca4SiN4,-1.234649080224444
mp-1214132,Ca4SiP4,-1.0431270326190478
mp-1214003,Ca4Sm2Cu3(ClO2)4,-2.6196434060971425
mp-6388,Ca4SmB3O10,-3.3907014319444446
mp-1100361,Ca4Sn3S10,-1.5019003576838243
mp-1046306,Ca4Sn5(TeO6)3,-2.1408593395833337
mp-867030,Ca4Sn5S14,-1.207100529211956
mp-866871,Ca4SnS6,-1.9077491949431813
mp-769317,Ca4Ta2O9,-3.5038222297499986
mp-1046672,Ca4Te3W5O18,-2.1059852590833343
mp-680711,Ca4Te5O14,-2.3149292425000003
mp-676893,Ca4ThF12,-4.222483792604706
mp-534953,Ca4Ti3AlSi4O19F,-3.5091322854668747
mp-15315,Ca4Ti3O10,-3.5415943449999987
mp-1227165,Ca4Ti3Si4SnO20,-3.3561819334375014
mp-1227317,Ca4Ti4Si3GeO20,-3.385284580833334
mp-1046360,Ca4Ti5(TeO6)3,-2.8720332058611118
mp-568469,Ca4TiN4,-1.3208624134651847
mp-1227137,Ca4TiSi4Sn3O20,-3.0864740870833325
mp-1227293,Ca4Tl2CO9,-2.427137406250001
mp-1213998,Ca4Tl3O9,-2.169271009765625
mp-1227091,Ca4UAl2(SiO5)3,-3.3102314355499995
mp-1046662,Ca4V5(TeO6)3,-2.3906079620833327
mp-1029737,Ca4VN4,-1.2091584766133339
mp-743704,Ca4Y2Al7Cr2SiO24,-3.2809976031250003
mp-1214020,Ca4YB3O10,-3.400696105138889
mp-650518,Ca4YFe5O13,-2.61603283277174
mp-669391,Ca4Zn2Cu3P5,-0.8050123764795915
mp-1227080,Ca4Zn3Fe(SiO3)8,-3.0515960748750004
mp-1227465,Ca4Zn51,-0.127148525909091
mp-1227017,Ca4ZnAg3,-0.3154975943749996
mp-1227034,Ca4ZnCo(Si2O7)2,-3.1301492830208337
mp-1227136,Ca4ZnFe3(SiO3)8,-3.0612555471250005
mp-756837,Ca4Zr3TaO12,-3.57568032025
mp-1029660,Ca4ZrN4,-1.2864362343911102
mp-1227190,Ca4ZrTi3(GeO5)4,-3.084135613906249
mp-1227178,Ca4ZrTi3(SiO5)4,-3.5113139842187486
mp-28088,Ca5(AlBi3)2,-0.5905076082692309
mp-8439,Ca5(AlSb3)2,-0.7735778586538461
mp-1213996,Ca5(BN2)3,-1.2639286301271415
mp-569383,Ca5(CoN2)2,-0.8146302208654546
mp-1116857,Ca5(CrN3)2,-1.006767633213846
mp-29917,Ca5(CuO2)6,-1.9975054219565225
mp-3080,Ca5(Ga3O7)2,-2.773413554
mp-17558,Ca5(GaAs3)2,-0.9494790628846156
mp-28489,Ca5(GaN2)2,-0.9116395706381808
mp-17985,Ca5(GaSb3)2,-0.7561932382692306
mp-1197278,Ca5(GeO5)2,-2.7914246273529413
mp-1105294,Ca5(GePd)6,-0.7837745669117645
mp-1196062,Ca5(IO6)2,-2.3749407470614043
mp-649479,Ca5(InSb3)2,-0.748796875320513
mvc-14086,Ca5(MnN3)2,-0.9237261685984599
mp-1029899,Ca5(OsN3)2,-0.747377542059999
mp-1182052,Ca5(PO4)3,-3.267988252446428
mp-667294,Ca5(PPd)6,-0.9794268326680672
mp-558966,Ca5(ReO6)2,-2.9030193341666664
mp-1029860,Ca5(RuN3)2,-0.7363983647523076
mp-1227364,Ca5(Si2Au3)2,-0.690992420166667
mp-1199479,Ca5(Si3O11)2,-2.381682996515152
mp-571333,Ca5(SiN3)2,-1.324738600906153
mp-1227183,Ca5(SiO3)6,-3.2367572968965517
mp-18670,Ca5(SnAs3)2,-0.8713197959615383
mp-1044973,Ca5(TiS2)8,-1.9357114529597697
mvc-11332,Ca5(VN3)2,-1.0169585185984618
mp-578630,Ca51W12N56O3,-1.1088924093404091
mp-31172,Ca5Ag3,-0.2875208040624999
mp-703276,Ca5Al11TlSi13O48,-3.2079388510576927
mp-677550,Ca5Al12Si12(AgO24)2,-3.194754665664558
mp-866314,Ca5Al2(SiN4)2,-1.393672305237647
mp-17694,Ca5Al6O14,-3.4563179630000014
mp-10047,Ca5As3,-1.1100863371875
mp-1214089,Ca5As3CO12,-2.332306087440477
mp-1227203,Ca5As3ClO12,-2.7548123252742864
mp-1227603,Ca5As3HO13,-2.688068776698636
mp-557482,Ca5As3O12F,-2.849746693747144
mp-1214218,Ca5As3O14,-2.2624981127272723
mp-24436,Ca5As4(HO2)10,-2.157645212017949
mp-30368,Ca5Au3,-0.6864336859375002
mp-571264,Ca5Au4,-0.7646848474999999
mp-781865,Ca5BC4Cl3,-1.0716515179958972
mp-27145,Ca5Bi3,-0.8392946434374999
mp-1227157,Ca5Bi6(Cl3O2)4,-2.2631273769877422
mp-1105558,Ca5CdCu2,-0.1894632715625
mp-1227139,Ca5Co3(SiO4)4,-3.0169527141964285
mp-1214169,Ca5CoPb3,-0.2849789636111113
mp-1196512,Ca5Cr3ClO12,-2.676909840274285
mp-1198286,Ca5Cr3O12,-2.719253962749999
mp-1182459,Ca5Cr3O13,-2.634794450416667
mp-685317,Ca5Cu19As10,-0.3531835338970582
mvc-14837,Ca5Cu2(IrO6)2,-2.142631107738095
mvc-13039,Ca5Cu2(RhO6)2,-2.128654931071429
mp-680754,Ca5CuPb3,-0.4312188186111112
mp-743698,Ca5Dy3Ti5Mn3O24,-3.366056105092832
mp-743624,Ca5DyTi5Fe(SiO5)6,-3.4274740099652767
mp-686764,Ca5FePb3,-0.2410306669444447