task_id,composition,formation_energy_per_atom
mp-1193684,Fe3Si2O9,-2.259729239732143
mp-1225125,Fe3Si4Ir,-0.5125379987500001
mp-1212682,Fe3SiNi,-0.2574682519999996
mp-578775,Fe3SiP5O19,-2.5626509223022955
mp-20883,Fe3Sn,0.03434693750000052
mp-27505,Fe3Sn2,0.0014695990000006991
mp-21850,Fe3SnC,0.06962011724999967
mp-1184307,Fe3Te,0.2455997099999996
mp-652337,Fe3Te2(CO)9,-0.5567180297826093
mp-1225183,Fe3Te2Se,-0.10863782476562517
mp-1200464,Fe3Te3ClO10,-1.6562440473976476
mp-1213327,Fe3TeC9SO9,-0.5711765116983691
mp-1178313,Fe3TeO8,-1.4006739258333336
mp-1184280,Fe3W,0.06657431874999807
mp-1196849,Fe3W10C3,0.2001925042968757
mp-20696,Fe3W3C,-0.030392803392857107
mp-28452,Fe3W3N,-0.14468693685785589
mp-1225363,Fe3W5N8,-0.28391015368999994
mp-650029,Fe3WC14(SO7)2,-0.6913681325919119
mp-1225899,Fe4(AsO7)3,-0.8488991139732137
mp-1043303,Fe4(CuO4)3,-1.256661845526315
mp-578661,Fe4(P2O7)3,-2.471127994003456
mp-31780,Fe4(PO4)3,-2.3935635234962414
mp-1203829,Fe4(PO5)3,-2.0813275731899354
mp-762231,Fe41O56,-1.639554359896908
mp-705779,Fe43O64,-1.794801120841122
mp-1226402,Fe46(BC3)3,-0.011401530150863962
mp-1213409,Fe4AgP(XeF3)2,-0.9518795763773475
mp-1212957,Fe4AgXeF5,-1.090495109177274
mp-735662,Fe4As10PbO22,-1.7279552941216216
mp-31803,Fe4As2O11,-1.7890551508088233
mp-1193500,Fe4As3O23,-0.6099408644583331
mp-505012,Fe4As5O13,-1.7554442550568181
mp-540741,Fe4Bi2O9,-1.816365683083334
mp-1078579,Fe4C,0.1294583852499997
mp-706459,Fe4C14O13,0.08532930125000078
mp-1225360,Fe4Co(BiO3)5,-1.687164698549999
mp-540724,Fe4Cu2S7,-0.5735658002644229
mp-1225235,Fe4CuNiO8,-1.5563802035714278
mp-649805,Fe4Ge(CO)16,-0.6522566065540547
mp-1201928,Fe4H12C15O31,-1.3562191377974189
mp-626855,Fe4H14O13,-1.4758911579654843
mp-1225226,Fe4Mo,0.20371759000000084
mp-1225260,Fe4Mo2N,-0.11086138212571432
mp-1225203,Fe4N,0.1281604315240017
mp-24987,Fe4Ni3(PO4)6,-2.266040140617761
mp-1225147,Fe4Ni4PdS8,-0.7436816248529422
mp-1225419,Fe4Ni5P3,-0.39445111636904784
mp-1225243,Fe4NiSe10,-0.3157151687291664
mp-1181411,Fe4O13,-0.5359717321323538
mp-764829,Fe4O3F5,-2.364785452891668
mp-1188678,Fe4O5,-1.7307376068055562
mp-763010,Fe4O5F3,-2.0262362204016675
mp-766996,Fe4OF6,-2.4757210839445465
mp-763020,Fe4OF7,-2.5774013728816683
mp-774992,Fe4OF8,-2.5537314196746155
mp-20885,Fe4P,0.410077179571428
mp-1196342,Fe4P2N3O8F9,-1.5330074343129114
mp-637226,Fe4P2O9,-2.295012573369048
mp-25756,Fe4P3(HO5)3,-2.199892071441543
mp-504312,Fe4P7O24,-2.437912262428572
mp-1101549,Fe4P9O32,-2.1985077450952377
mp-652092,Fe4Pb(CO)16,-0.6342160867567557
mp-850249,Fe4S5,-0.8223848255902789
mp-1225139,Fe4Sb3,0.4320318392857142
mp-1225212,Fe4Se3Br,-0.1146871607226565
mp-1225135,Fe4Si,-0.06749425200000017
mp-653596,Fe4Si(CO)16,-0.6561006449999993
mp-628588,Fe4Si2Sn7O16,-1.9906417081034484
mp-1225529,Fe4SiO9,-1.874741314732143
mp-706411,Fe4Sn(CO)16,-0.6610716239189179
mp-624762,Fe4Te2(CO)11,-0.5256833808035728
mp-683793,Fe4Te2MoC14(SO7)2,-0.6131940119087836
mp-1225166,Fe4Te3S,-0.2345434417578129
mp-1225000,Fe4Te3Se,-0.09447440857421883
mp-1225423,Fe4W2N,-0.07950478998285705
mp-1198168,Fe5(BO3)6,-2.16690559974138
mp-1213223,Fe5(GeO4)3,-1.9645917992500004
mp-1178299,Fe5(O4F)2,-1.7572522738253344
mp-762900,Fe5(OF2)4,-2.2805080608541166
mp-779794,Fe5(OF4)2,-2.515622712801333
mp-705433,Fe5(P2O7)4,-2.4028831427351918
mp-31872,Fe5(P3O11)2,-2.432752472889612
mp-540432,Fe5(PO4)4,-2.4070609027428578
mp-1198345,Fe5(SiO4)3,-2.458666123374999
mp-9913,Fe5B2P,-0.38748801568452507
mp-1225422,Fe5Bi4O13F,-1.8458149958669567
mp-2794,Fe5C2,0.053717311785713866
mp-770879,Fe5Co(PO4)6,-2.317586535634921
mp-1084832,Fe5Co3,0.4732398124999993
mp-771671,Fe5Co3O16,-1.239682199166668
mp-771903,Fe5Cu(PO4)6,-2.2848143445238103
mp-566675,Fe5Cu2(PO4)6,-2.295637758996139
mp-33300,Fe5CuO8,-1.6931713242857154
mp-1193306,Fe5HO8,-1.70128042883
mp-770337,Fe5Ni(PO4)6,-2.2895739864682545
mp-1225371,Fe5Ni4P3,-0.388621033869048
mp-675307,Fe5Ni7S16,-0.7900253746428579
mp-1225019,Fe5NiO8,-1.6718675200000013
mp-781375,Fe5O3F7,-2.429217006472
mp-1095382,Fe5O7,-1.714549427395833
mp-774308,Fe5O7F3,-1.9073634688213323
mp-1225007,Fe5O8,-1.660333390769232
mp-1178251,Fe5OF11,-2.5955322717258817
mp-763767,Fe5P3O13,-2.3125787046513606
mp-1225302,Fe5P3O17,-1.955928398907144
mp-744239,Fe5P4(H3O10)2,-2.077281149722612
mp-851003,Fe5P6WO24,-2.4361719048015877
mp-772375,Fe5Sb(PO4)6,-2.401616764384921
mp-449,Fe5Si3,-0.3813786518750009
mp-1225714,Fe5SiAs,-0.15547925285714218
mp-1212719,Fe5SiC,-0.15960243732142892
mp-705744,Fe5SiO8,-2.0858680005357155
mp-1225379,Fe5SiP,-0.296474775544218
mp-772585,Fe5Sn(PO4)6,-2.4134133749404785
mp-690495,Fe5SnO8,-1.8388811603571442
mp-771352,Fe5Te(PO4)6,-2.333804503690476
mp-645953,Fe5Te6(ClO9)2,-1.6210979731941944
mp-1097708,Fe65(BN)6,-0.07455084667896239
mp-1225026,Fe6BC,-0.07560805942708447
mp-1225209,Fe6BMo6C,-0.033266549315476776
mp-1225123,Fe6Bi(P3O13)2,-2.3163765282142847
mp-1225401,Fe6ClO12,-1.3628112717505263
mp-653817,Fe6Ge2(CO)23,-0.6316505121296297
mp-1225101,Fe6Ge2N,-0.09843124359777752
mp-636946,Fe6Ge5,-0.09186511818181874
mp-743742,Fe6H12Pb(SO7)4,-1.7859019828370584
mp-530925,Fe6Ni9S20,-0.7924035584642866
mp-780205,Fe6O11F,-1.5783903677744453
mp-1178314,Fe6O5F7,-2.286239498309999
mp-779899,Fe6O7F6,-2.0528376171521043
mp-849235,Fe6OF11,-2.6396333649633337
mp-744374,Fe6P4H17O27,-1.8902634883122489
mp-1213654,Fe6P4H23O21,-1.3667650918163232
mp-1201833,Fe6Pb(SO7)4,-1.4426081654166667
mp-653267,Fe6Sn2(CO)23,-0.6385833557407415
mp-542660,Fe7(AsO4)6,-1.7998802648648655
mp-1225378,Fe7(CoO6)2,-1.7173745380952383
mp-850113,Fe7(Ni3O8)2,-1.4108054496551732
mp-781010,Fe7(OF3)3,-2.3846817531294744
mp-777905,Fe7(OF7)2,-2.5564532056156533
mp-650224,Fe7(P2O7)4,-2.4707320647009965
mp-542523,Fe7(PO4)6,-2.421762108996139
mp-1178257,Fe7(PO4)8,-2.2792981203647416
mp-690584,Fe7(PO5)4,-2.2822606862442405
mp-1212736,Fe7(SiO3)8,-2.686634697948717
mp-1197365,Fe7(SiO4)4,-2.4461282811111107
mp-763339,Fe7(SiO6)2,-2.1781607804761904
mp-1227244,Fe74W13,0.05816299482758538
mp-21717,Fe7C3,0.05990060437500092
mp-1080603,Fe7Co,-0.014223831249999819
mp-1212970,Fe7Ge4,-0.07553025818181812
mp-569594,Fe7Mo6,0.025205909230768733
mp-1225022,Fe7Ni5P4,-0.3870017580357148
mp-774072,Fe7O3F13,-2.4421075219226096
mp-1178254,Fe7O7F,-1.7342573696626675
mp-715333,Fe7O8,-1.7158651236666669
mp-705558,Fe7O9,-1.6146750919531243
mp-770783,Fe7P12WO48,-2.240163232731093
mp-25763,Fe7P6(HO6)4,-2.287396885788711
mp-1195901,Fe7Pb7F34,-2.7500225095929167
mp-684707,Fe7S12,-0.6873728421710529
mp-556435,Fe7S8,-0.7349852968333329
mp-1203691,Fe7Sb10(Br4O9)2,-1.5435226612209303
mp-1201515,Fe7Sb10(Cl4O9)2,-1.7211645771762791
mp-1197479,Fe7Sb3P3(BrO6)3,-2.0198033984243704
mp-1200389,Fe7Sb3P3(ClO6)3,-2.1082270194473107
mp-952967,Fe7Se3,0.10130986542187513
mp-540702,Fe7Se8,-0.13259395236111182
mp-1225755,Fe7Si3(H4O9)2,-2.043425305040555
mp-1225100,Fe7SiO10,-1.9649849945833333
mp-777003,Fe7Te(PO4)12,-2.174923817878152
mp-1473,Fe7W6,-0.02086764692307733
mp-1226154,Fe8Cu3Te12(Cl5O16)2,-1.49156969127077
mp-1182707,Fe8H10O17,-1.5797167740699998
mp-555,Fe8N,-0.0709870647088893
mp-673174,Fe8N3,-0.16383182852788045
mp-1182503,Fe8O17,-1.2814936114500006
mp-763787,Fe8O9,-1.7006737106617642
mp-763415,Fe8SiO12,-1.988566222142857
mp-704206,Fe9(PO4)8,-2.3460072599416923
mp-1225266,Fe9B4Ir3,-0.21078218229166626
mp-1225075,Fe9B4Rh3,-0.2172359016666663
mp-1225248,Fe9BP2,-0.3006075198710316
mp-705842,Fe9Cu3O16,-1.588339234285714
mp-504587,Fe9Cu9S16,-0.589871126029412
mp-763441,Fe9O10,-1.7153265343421045
mvc-12205,Fe9O13,-1.6824063116477277
mp-1225104,Fe9PO12,-1.7849642589610395
mp-1224956,FeAg,0.4043594050000001
mp-1212730,FeAg(MoO4)2,-1.80210425625
mp-704626,FeAg(SeO3)2,-1.31065558446875
mp-1225099,FeAg2Sn3S8,-0.7327445162500003
mp-20002,FeAg2SnS4,-0.5796158164062515
mp-1184294,FeAg3,0.3475596187500005
mp-568663,FeAg3(CN)6,0.2729882895762508
mp-1205948,FeAg3F6,-1.819496911714
mp-690706,FeAg3H6(C3N4)2,-0.012526976177499686
mp-1181427,FeAgAs(S2N3)2,0.4721080099592307
mp-1212706,FeAgBr4,-0.4651656425
mp-19225,FeAgO2,-1.348915833125
mp-1184234,FeAgO3,-0.7903572687499996
mp-1202376,FeAgP2O7,-2.2550836570941555
mp-1096969,FeAgS2,-0.5257852720312508
mp-1096959,FeAgSe2,-0.07066462929687489
mp-1224997,FeAgTe2,0.05609901750000024
mp-427,FeAs,-0.20057370000000047
mp-1203347,FeAs(H2O3)2,-1.5932586489150005
mp-2008,FeAs2,-0.26093689666666603
mp-1212794,FeAs2Pb2O9,-1.6773727733035722
mp-1181479,FeAs2Pb4(ClO2)4,-1.4359590227915788
mp-1200684,FeAs2PbO8,-1.6511764591666669
mp-1204738,FeAs2S4(O2F3)4,-2.196579903815925
mp-559585,FeAs4F18,-2.509513736366088
mp-1200003,FeAsNO4F,-1.1870072860712495
mp-1184215,FeAsO3,-0.9808723817499996
mp-19398,FeAsO4,-1.7753255172222226
mp-1196271,FeAsO6,-0.9985842365625004
mp-1224962,FeAu,0.2471502249999995
mp-973557,FeAu3,0.15779813750000038
mp-996994,FeAuO2,-1.2808438081250006
mp-1080525,FeB,-0.3783912070833342
mp-758974,FeB18H32(C4S)2,-0.23464384350762285
mp-1226982,FeB18H42C8(SN)2,-0.2255317203414381
mp-569376,FeB2,-0.04995244777777804
mp-567042,FeB2C6(O3F4)2,-1.8328187888197105
mp-1202257,FeB2P2(HO4)3,-2.1713642511739537
mp-1079437,FeB4,-0.17064186633333378
mp-1191380,FeB4O7,-2.6387602554513894
mp-1196576,FeB6(CO)4,0.22404696300000068
mp-631397,FeBN3O3F4,-1.4621675549847233
mp-19097,FeBO3,-2.3634865620833323
mp-1213675,FeBP(HO3)2,-2.2593564950196545
mp-766957,FeBP2H5NO9,-2.0297274476411777
mp-1212760,FeBP2NO9,-1.7665212306844569
mp-1213402,FeBP2O11,-1.6458002295357144
mp-1197024,FeBi(SeO3)3,-1.4859093651450894
mp-761437,FeBi25O39,-1.6381103737500002
mp-1190874,FeBi2PO8,-1.8239579793452376
mp-1192577,FeBi2Se2Cl3O7,-1.5173730373811665
mp-565513,FeBi3(MoO6)2,-1.9252419016666675
mp-1095303,FeBi4S7,-0.6326364548697926
mp-1212910,FeBi6P2(O7F)2,-2.100565677166628
mp-1022732,FeBiAsO,-0.5021924753125004
mp-1181645,FeBiC6(N3O2)2,0.5669904307344448
mp-24932,FeBiO3,-1.7496495717499996
mp-1225376,FeBiPPbO7,-1.851212723262986
mp-1078379,FeBiS2Br,-0.5064272006250008
mp-601716,FeBiSbS4,-0.5755495623214283
mp-22880,FeBr2,-0.44127778666666667
mp-23232,FeBr3,-0.3501341299999998
mp-1225195,FeC3N3O2,0.6265228815677769
mp-1202060,FeC3NCl3O2,0.3880991856590008
mp-636243,FeC3SO3,-0.6541146676953131
mp-616539,FeC3SeO3,-0.5555444707617188
mp-1195386,FeC4N2O9,-0.5390485517297906
mp-1238261,FeC4S2N3O5,-0.022682032101000497
mp-1202981,FeC7(O2F)2,-0.6838815333842844
mp-567933,FeCN2,0.04764338662250012
mp-18969,FeCO3,-1.6762276205000006
mp-1178258,FeCSO7,-1.7524397221562495
mp-985588,FeCl,0.0925610583699994
mp-23229,FeCl2,-1.1095534821733335
mp-583463,FeCl3,-1.1502482353616663
mp-1225059,FeCl4,-0.9639188796080004
mp-1207367,FeCl6,-0.3555869999371432
mp-552787,FeClO,-1.623794456503333
mp-2090,FeCo,-0.059774585000000435
mp-1225028,FeCo(BiO3)2,-1.6011176947499997
mp-1224992,FeCo(NiS2)4,-0.7509835751785721
mp-775299,FeCo(PO4)2,-2.229225371190476
mp-1225064,FeCo(RhS2)4,-0.8083738694642852
mp-1225063,FeCo16NiS16,-0.7846137286764716
mp-22015,FeCo2(CN)6,0.44646986088133456
mp-1203720,FeCo2BO5,-1.9334075583796293
mp-22300,FeCo2Ge,-0.15792427125000064
mp-1007852,FeCo3,0.014145927499999544
mp-772363,FeCo3(PO4)4,-2.1657150078571434
mp-761579,FeCo3O8,-1.1896257025
mp-1224978,FeCo3S8,-0.8227488052083339
mp-771994,FeCo5O12,-1.1418787786111106
mp-1096987,FeCo9,0.6163118100000006
mp-771048,FeCo9O20,-1.1337948788333336
mp-1224972,FeCoAs4,-0.27927127833333404
mp-1224984,FeCoB,-0.27980953055555585
mp-1224999,FeCoB2,-0.3697564633333332
mp-540710,FeCoBO4,-2.0836191448809527
mp-1225216,FeCoBi2(AsO6)2,-1.5470605630555565
mp-1025047,FeCoGe,-0.11468276500000013
mp-505732,FeCoH18(CN2)6,-0.3071118643742098
mp-24447,FeCoH18(NCl)6,-0.8199541764531251
mp-1097012,FeCoO2,-0.9092426018750004
mp-761526,FeCoO4,-1.246505269166666
mp-1095664,FeCoP,-0.5459802390476192
mp-705338,FeCoPO4F,-2.2493271069791083
mp-548505,FeCoPO5,-2.1868782026116067
mp-1224993,FeCoPt2,0.08210020000000018
mp-1224971,FeCoS2,-0.5884925970312498
mp-1225004,FeCoS4,-0.8561226302083339
mp-1224950,FeCoSb4,-0.09908013500000007
mp-1224966,FeCoSe2,-0.07110438429687528
mp-1224983,FeCoSi2,-0.5423736799999999
mp-1025124,FeCoSn,0.2991661566666662
mp-1225200,FeCoSn2,-0.026016583333333898
mp-1225052,FeCoSn4,0.011626781666667084
mp-1224955,FeCoTe2,0.036063519999999016
mp-1224945,FeCu,0.16896235500000056
mp-1189156,FeCu(C3N4)2,0.98082551365375
mp-775167,FeCu(PO4)2,-2.1413432686904765
mp-1225020,FeCu(RhS2)4,-0.7912662530357153
mp-1225080,FeCu(RhSe2)4,-0.3641637856249998
mp-22413,FeCu2(CN)6,0.5376953168813344
mp-1204931,FeCu2As3O11,-1.164035655955882
mp-1225359,FeCu2BO5,-1.6846165833796292
mp-22053,FeCu2GeS4,-0.6608183526562499
mp-1087471,FeCu2GeSe4,-0.21956085867187447
mp-40573,FeCu2H21(O5F4)2,-1.6010773169771424
mp-1225111,FeCu2SbO6,-1.4528132409999999
mp-1188558,FeCu2SiS4,-0.7440814282812509
mp-1025510,FeCu2SiSe4,-0.2452875305468752
mp-21865,FeCu2Sn,0.2299684387500003
mp-1225180,FeCu2Sn3S8,-0.7586742212500001
mp-22648,FeCu2SnS4,-0.6649928776562515
mp-22612,FeCu2SnSe4,-0.2500262061718752
mp-1224953,FeCu3,0.1119702775000011
mp-775297,FeCu3(PO4)4,-2.008173762440476
mp-1078387,FeCu3S4,-0.6179569357812502
mp-1224980,FeCu3S8,-0.6275523868750005
mp-1224977,FeCu4,0.06385822000000019
mp-682554,FeCu4Re14(Mo3S20)2,-0.9848812275
mp-675830,FeCu5S4,-0.4239036366250005
mp-1105236,FeCu6(SnS4)2,-0.5199634395588245
mp-1225017,FeCu6GeS8,-0.6389173267187509
mp-1196630,FeCu8Sb3S13N6,0.3107683973518546
mp-1104343,FeCuAs2PbO10,-1.3819220281666664
mp-642426,FeCuC5N6O,0.3332782736228574
mp-1203139,FeCuH4S2O13,-1.310987485183572
mp-1224973,FeCuNi,0.18890010999999995
mp-510281,FeCuO2,-1.448838880625
mp-542159,FeCuPO5,-2.024300820736607
mp-1095970,FeCuPd2,2.2705391150000005
mp-3702,FeCuPt2,-0.18091016499999926
mp-1095874,FeCuRh2,2.9217654875
mp-640073,FeCuS2,-0.6006159895312502
mp-505244,FeCuSe2,-0.13795307679687507
mp-1224961,FeCuTe2,-0.013274322500000043
mp-556911,FeF2,-2.7378338574600005
mp-556197,FeF3,-2.7740224883925007
mvc-13960,FeF4,-2.069579604952
mp-22478,FeGe,-0.12235267249999993
mp-21117,FeGe2,-0.06381382999999967
mp-1184472,FeGe3,0.4208745375000005
mp-736330,FeGe4H24C8(S5N)2,-0.4249052598421428
mp-25522,FeGeO3,-2.01165551975
mp-865191,FeGeRu2,-0.1544246312500004
mp-1009077,FeH,-0.05917073431000031
mp-849987,FeH10N2Cl5O,-1.0475892420268422
mp-1238696,FeH10S2(NO2)4,-1.206199564953799
mp-1205475,FeH10S2NO11,-1.5597271764182
mp-744042,FeH12(NF2)3,-1.4207563596690898
mp-770576,FeH12(SO7)2,-1.5715152785884474
mp-1194613,FeH12C2(NCl2)2,-0.6921405906542853
mp-565741,FeH12C2N2F5,-1.1870677293931822
mp-743577,FeH12C2S2(O2F)6,-1.6564827848915715
mp-603940,FeH12C4NCl4,-0.5312131044936366
mp-1203520,FeH12C5NCl2O5,-0.9122368019169228
mp-1197408,FeH12C6N(ClO2)2,-0.768613667397693
mp-542912,FeH12Pt(ClO)6,-1.3117935934807696
mp-600524,FeH14C3Br3NO2,-0.68541073215875
mp-566219,FeH14C4NOF4,-0.9651795827627996
mp-1198559,FeH14SO11,-1.5294021985552773
mp-709074,FeH16C4(NCl2)2,-0.5865661922488891
mp-723036,FeH16C4S4(N4Cl)2,-0.5458784207065719
mp-1198586,FeH18C3(N3F2)3,-1.0436894498978373
mp-1213612,FeH18C6N6O13,-1.1736985338225
mp-1212734,FeH2(CO2)2,-0.8418123488600008
mp-1203662,FeH2(CO3)2,-0.9570839527036368
mp-1194614,FeH20C8NCl4,-0.4644863861858824
mp-721635,FeH20S2(NO7)2,-1.4296343949432042
mp-1200723,FeH24C2S2(N3O7)2,-1.1883849637609178
mp-600165,FeH24C8(NCl2)2,-0.4036166364661533
mp-743856,FeH2C4N4Cl6O,0.48011717707944496
mp-1182106,FeH2Cl5O3,-0.9226442256627276
mp-643564,FeH2SO5,-1.8462481341725
mp-1018061,FeH3,0.16964032603499926
mp-1182632,FeH36C12S6(BrO2)3,-0.5365196788624225
mp-1079939,FeH4,0.2361710631039997
mp-1201095,FeH4(CN)6,0.030668252867058376
mp-743926,FeH4(CO3)2,-1.5401664422676924
mp-504883,FeH4(ClO)2,-1.4184636859444444
mp-772432,FeH4(SO5)2,-1.6786985476532352
mp-566863,FeH44C12(N5O8)2,-0.7302453123865055
mp-865922,FeH4Br3N,-0.6183637074288895
mp-567010,FeH4C3O5,-1.2129168191907689
mp-1194642,FeH4C3O8,-1.518302901295625
mp-703668,FeH4S2NO8,-1.6605736803115634
mp-1213353,FeH4SO4,-1.0866356488542508
mp-1190513,FeH5CN(ClO)2,-1.1602274777708328
mp-542787,FeH6(CO3)2,-1.385727894781334
mp-744930,FeH6SO6,-1.5564126248773225
mp-1203197,FeH7C3NO6,-1.1978542017483331
mp-25531,FeH8(BrO2)2,-1.2658786605973331
mp-744948,FeH8(ClO2)2,-1.400098780031999
mp-540639,FeH8C4(S2N3)2,-0.37071957497782587
mp-1181422,FeH8N2F5,-0.6019385609168753
mp-1199758,FeH8N3O13,-1.2323389630940011
mp-1195843,FeH8SO8,-1.5979441951679167
mp-1196345,FeH9(NF)3,-1.186621113955625
mp-1225460,FeH9(SO6)2,-1.6672431223210424
mp-542702,FeH9C3N7O2,-0.4386930475222745
mp-600433,FeHC2O3,-1.217489435338571
mp-626102,FeHO2,-1.6895822215300005
mp-1198947,FeHg2C6S2(NO2)2,-0.2968886938461758
mp-1225010,FeHg2O3F5,-1.3154593222454545
mp-1184346,FeHg3,0.45355792875
mp-541913,FeHgC4(SN)4,-0.10009024505500007
mp-1188386,FeHgO2F5,-1.3637978237166668
mp-1197393,FeI(NO)2,-0.3459655282933329
mp-1224967,FeIr,0.07944671499999956
mp-10596,FeIr3,-0.0008601749999996855
mp-1224941,FeMo2,0.0907688733333328
mp-1225102,FeMo2H7O11,-1.6401248811471418
mp-1225013,FeMo3As4,-0.1881439425
mp-1225051,FeMo3PdN,-0.186237492063332
mp-1225033,FeMo3PtN,-0.3036697691466668
mp-27380,FeMo3S4,-0.8704459032812508
mp-1181538,FeMo6C8(NO10)2,-0.7372390164799999
mp-1225057,FeMo6Pd3N2,-0.2269560970633317
mp-1225245,FeMo6Rh3N2,-0.2713011033133317
mp-24968,FeMoClO4,-1.87253022118
mp-1202896,FeMoHSeO7,-1.7010260139512496
mp-1225189,FeMoO,0.5251623795833329
mp-541843,FeMoO4,-2.0121082595833344
mp-1102843,FeMoP,-0.5886546882142861
mp-6988,FeN,-0.3129770061899997
mp-1080202,FeN2,-0.06583271325333466
mp-1201709,FeN2Cl5O,0.1870818666877783
mp-1213521,FeN2F5,-0.6767636172762499
mp-1204897,FeN3Cl5,0.3993439648955557
mp-566054,FeN3ClO3,-0.4882624242687497
mp-1080474,FeNCl3,0.4047095725680002
mp-2213,FeNi,-0.06762126000000103
mp-780106,FeNi(PO4)2,-2.13588716813492
mp-1225067,FeNi(PS3)2,-0.6038412578660726
mp-1072076,FeNi2,0.11665997499999985
mp-21498,FeNi2(CN)6,0.5353094722146674
mp-1225094,FeNi2Ge,-0.09165780125000024
mp-1418,FeNi3,-0.09353689749999994
mp-1225439,FeNi3(Mo3N)2,-0.2754483045633336
mp-775077,FeNi3(PO4)4,-1.9873482995238096
mp-1225604,FeNi35S32,-0.6861226376470597
mp-853241,FeNi3Sn2(PO4)6,-2.1818184073015874
mp-1212687,FeNiAg2F7,-2.0477068657572732
mp-1080824,FeNiAs,-0.12301986722222184
mp-1224951,FeNiAs4,-0.25481584666666635
mp-1224960,FeNiB,-0.2503201938888893
mp-1206550,FeNiGe,-0.1552734650000005
mp-631256,FeNiMo,0.5650715233333324
mp-1225097,FeNiMo3N,-0.20931535539666632
mp-629397,FeNiN,-0.10418097746000043
mp-770086,FeNiO3,-1.2666714237500003
mp-1080653,FeNiP,-0.4662568862698409
mp-1043619,FeNiP2O9,-1.8512404936950555
mp-1224986,FeNiP6,-0.40762505848214303
mp-542158,FeNiPO5,-2.0104282863616074
mp-13463,FeNiPt2,-0.21268218000000072
mp-1224947,FeNiPt6,-0.1330486962499995
mp-1224903,FeNiS2,-0.5795684170312505
mp-1224893,FeNiS4,-0.7882236677083346
mp-1224810,FeNiSb4,-0.11770382666666696
mp-1224908,FeNiSb6,-0.12955340687499994
mp-1224875,FeNiSe4,-0.2622001473958336
mp-1025011,FeNiSn,0.14634552333333298
mp-1224910,FeNiTe4,-0.13979492250000014
mp-1178232,FeO,-1.6786078181250002
mp-850222,FeO2,-1.4537150841666673
mp-765315,FeO2F,-1.3766352696725006
mp-863847,FeO3,-0.6715224059375
mp-542759,FeP(H2O3)2,-1.9108584770102384
mp-1212769,FeP(HO2)2,-1.311554427422858
mp-20027,FeP2,-0.5357847347619055
mp-743779,FeP2(H4O5)2,-1.7890128059878914
mp-1212751,FeP2(PbO5)2,-1.9606480097857144
mp-1182728,FeP2CO8,-1.5569103569196432
mp-744839,FeP2H24C8S4NClO4,-0.6203679446234598
mp-743814,FeP2H2O9,-1.7896542023411215
mp-565721,FeP2HO7,-2.3717622683323367
mp-25526,FeP2O7,-2.330454143303571
mp-1205225,FeP2O9,-1.6488991142113092
mp-566238,FeP2PbO7,-2.4656349075487003
mp-1224886,FeP2W,-0.3929971448214289
mp-772000,FeP2WO8,-2.399402953690476
mp-746690,FeP3(H2O3)3,-1.8207102036525564
mp-1200394,FeP3(HO)6,-1.4202561887905365
mp-604694,FeP3(HO2)6,-2.0437444076431164
mp-745164,FeP3(HO5)2,-2.334886083979285
mp-746355,FeP3H18C6(SO)6,-0.7515363305240896
mp-743646,FeP3H5NO10,-2.0309832229704283
mp-1181396,FeP3O11,-1.6555548803452382
mp-1200792,FeP4(C2O5)2,-1.38354360387218
mp-763263,FeP4O11,-2.5197395459263388
mp-1101552,FeP4O13,-2.151358211101191
mp-850225,FeP6(WO8)3,-2.5061722800840336