task_id,composition,formation_energy_per_atom
mp-768498,Cr7Ni20Mo3,-0.04196844566666584
mp-1226358,Cr7Se10,-0.4996935691727938
mp-696673,Cr7Se8,-0.4071173699166659
mp-1213756,Cr7Te8,-0.11943895933333315
mp-744682,Cr8Bi4O29,-1.653252858079268
mp-1226128,Cr8Cd3CuS16,-1.045627151428572
mp-1226633,Cr8Co3NiS16,-0.9551041255357142
mp-1226059,Cr8CoCu3Se16,-0.4551948270535716
mp-1226091,Cr8Cu3NiS16,-1.0088526698214284
mp-1226149,Cr8Fe2CuNiS16,-0.9462068348214296
mp-1226582,Cr8Fe3CuS16,-0.9364397894642856
mp-1226423,Cr8Fe3NiS16,-0.9496870355357144
mp-1226359,Cr8FeCo2CuS16,-0.9402935719642846
mp-1226330,Cr8Ga3CuSe16,-0.5214138852678565
mp-767372,Cr8Ni50Mo15W2,-0.05263248133333491
mp-766895,Cr8Ni50Mo17,-0.05239798906666692
mp-565489,Cr8O21,-1.7087300178017242
mp-1226337,Cr9FeB6,-0.4120256431249985
mp-676500,Cr9In7S24,-1.0155651585208347
mp-1045826,Cr9O13,-2.0345166184659083
mp-557592,CrAg(PS3)2,-0.7438543053660723
mp-1226281,CrAg(PSe3)2,-0.2373034865848219
mp-1183721,CrAg3,0.2613934125000004
mp-566124,CrAg3ClO4,-1.0482116681400002
mp-1206806,CrAg3F6,-1.8749473527140001
mp-19378,CrAgO2,-1.6835684031250002
mp-777097,CrAgO4,-1.2197040966666666
mp-4182,CrAgS2,-0.8011395320312502
mp-3532,CrAgSe2,-0.3575575217968749
mp-1226317,CrAgSn(SeS)2,-0.6087814593303575
mp-1226291,CrAgSnS4,-0.8505171273214286
mp-1226303,CrAgSnSe4,-0.3895340149107146
mp-1018084,CrAgTe2,-0.13432957000000026
mp-15681,CrAs2,-0.12589619000000005
mp-1042757,CrAs2O7,-1.6060953116249999
mp-19077,CrAsO4,-1.956591427083333
mvc-5643,CrAsO5,-1.5185363801785716
mp-1214694,CrAsO6,-1.26176165078125
mp-15683,CrAsRh,-0.2541140949999993
mp-1226221,CrAu,0.4690048950000003
mp-1070789,CrAu4,0.02445193999999944
mp-996996,CrAuO2,-1.6180551106249998
mp-7113,CrAuS2,-0.8344592195312508
mp-1080664,CrB,-0.5374551733333329
mp-374,CrB2,-0.34106572111111194
mp-1197022,CrB2(PbO2)6,-1.9372431788492064
mp-1226228,CrB2Mo,-0.4748213958333327
mp-1226273,CrB2Ru,-0.2995097570833334
mp-1226242,CrB2W,-0.4366475233333329
mp-780501,CrB3(HO3)3,-2.076164976225625
mp-1078278,CrB4,-0.310121646333333
mp-1226219,CrB4Mo,-0.29556906444444425
mp-1198848,CrB6P2(H17C3)2,-0.2296659754564422
mp-19299,CrBO3,-2.620946096083331
mp-1079128,CrBi,0.6068344737500011
mp-642975,CrBi12Mo4PbO34,-1.844183887259616
mp-705013,CrBi8O15,-1.6962954786979154
mp-566058,CrBiO3,-1.9936445847499988
mp-775434,CrBiO4,-1.7497607891666658
mp-1199140,CrBiO5,-1.4585285837499993
mp-1226306,CrBiTeO6,-1.8725740713888888
mp-1226374,CrBiWO6,-1.839108393611112
mp-567624,CrBr2,-0.6474622866666664
mp-27734,CrBr3,-0.8087746204166658
mp-31725,CrBrO,-1.6287562620833331
mp-1018050,CrC,-0.014537134374998928
mp-1200737,CrC32O5,0.8300453217434207
mp-649195,CrC5SO7,-1.0261681924330364
mp-1204712,CrC6N12(ClO3)3,0.016830659771291185
mp-1079533,CrCd3Te4,-0.2755818506250001
mp-1181713,CrCdCu3Se4,-0.2251640810416665
mp-559161,CrCdF6,-2.6278102077675
mp-1226286,CrCdInS4,-0.9987117249404766
mp-18781,CrCdO4,-1.6609903391666674
mp-1018083,CrCdTe2,-0.1397042487500002
mp-1183702,CrCl,-0.2813262766299989
mp-22857,CrCl2,-1.326634400506667
mp-569890,CrCl3,-1.5622944978616662
mp-1010071,CrCo,0.1687831949999996
mp-1178412,CrCo(PO4)2,-2.3230737278571425
mp-1008277,CrCo2As,0.025475086250000167
mp-1183740,CrCo2Ge,-0.10541964874999896
mp-1018082,CrCo2Sb,0.05711351125000075
mp-1008224,CrCo2Si,-0.3065564475000002
mp-1087479,CrCo3,-0.0055265762499994145
mp-775991,CrCo3(PO4)4,-2.210564180773808
mp-648394,CrCo3C16NO14,-0.6849976387108573
mp-744721,CrCo3H24C6(N10O11)3,-0.4392638899693814
mp-861562,CrCo3O8,-1.306366633333333
mp-1226307,CrCo4SbO8,-1.7123119489285707
mp-773306,CrCo5O12,-1.226633461944445
mp-1206397,CrCoAs,-0.17046216833333322
mp-1226217,CrCoB,-0.2738049822222213
mp-1206044,CrCoBr3,0.13845217599999984
mp-1197764,CrCoH15N5ClO8,-0.8221254283696774
mp-24376,CrCoH18(CN2)6,-0.3106561641110517
mp-1226403,CrCoNF6,-1.5550345510577768
mp-18788,CrCoO4,-1.5870082866666664
mp-1095673,CrCoSi,-0.3597119316666664
mp-1226249,CrCoSi2,-0.4123731087499998
mp-1009593,CrCoTe,0.08206137666666652
mp-868653,CrCu(PO4)2,-2.2102758895238104
mp-572465,CrCu(PS3)2,-0.7506964858660723
mp-1226296,CrCu(PSe3)2,-0.216218214584822
mp-1213744,CrCu(WO4)2,-1.9813235437500007
mp-1007924,CrCu2Si,0.132266017500001
mp-772002,CrCu3(PO4)4,-2.023799394940476
mp-1181716,CrCu3HgSe4,-0.1510804027083326
mp-1226279,CrCu4NiSn2,0.13189379625000086
mp-1100441,CrCuB,0.18193096111111132
mp-24429,CrCuH18Br5N6,-0.6666311586916128
mp-24013,CrCuH18N6Cl5,-0.8188457381690322
mp-1006615,CrCuN6Cl5,0.9913543147630779
mp-510625,CrCuO2,-1.781085983125001
mp-1183696,CrCuO3,-0.9255949947500006
mp-504927,CrCuO4,-1.366959639166667
mp-1226276,CrCuRhSe4,-0.4265551634821431
mp-5862,CrCuS2,-0.8445875345312501
mp-1226309,CrCuS4,-0.7517004818750012
mp-568587,CrCuSe2,-0.36140093679687535
mp-1226299,CrCuSnS4,-0.892479956607143
mp-1226334,CrCuSnSe4,-0.4029822049107139
mp-554340,CrF2,-2.8356771591266665
mp-560338,CrF3,-3.0378755008925005
mp-704123,CrF4,-2.616622643952
mp-639662,CrF5,-2.3304720197416664
mvc-11142,CrF6,-2.093673852448571
mp-1226211,CrFe,0.08805057000000183
mp-559001,CrFe(BiO3)2,-1.8786222777500001
mp-861612,CrFe(PO4)2,-2.487011242440476
mp-1226343,CrFe11Si4,-0.2959793868750005
mp-777476,CrFe2(PO4)3,-2.447115636746032
mp-652318,CrFe2C10(Se2O5)2,-0.6060337947916665
mp-769927,CrFe2O5,-1.890018432656249
mp-1018068,CrFe2Si,-0.2512422000000001
mp-1008226,CrFe2Sn,0.2608664412500001
mp-1018081,CrFe3,0.04623092249999949
mp-1226210,CrFe3As2,-0.03276915333333364
mp-1226213,CrFe3B2,-0.2872127155555558
mp-762179,CrFe3Co2(PO4)6,-2.3082692073015867
mp-773538,CrFe3Cu2(PO4)6,-2.2346769656349204
mp-1206130,CrFe3N,-0.042345282476000536
mp-850902,CrFe3Ni2(PO4)6,-2.2730804698015867
mp-775989,CrFe3Sb2(PO4)6,-2.409899380357143
mp-1226271,CrFe3Sb4,0.05153412875000018
mp-776666,CrFe3Sn2(PO4)6,-2.401686607301588
mp-1226230,CrFe4,0.021082278000000086
mp-704853,CrFe4P2(CO)18,-0.5377053014950172
mp-771182,CrFe5(PO4)6,-2.4155531903571426
mp-1206083,CrFeAs,-0.09668410611111096
mp-1226258,CrFeAs2,-0.1969162324999996
mp-1226236,CrFeAs4,-0.17071165999999968
mp-1226310,CrFeB2,-0.4158849733333323
mp-1012640,CrFeCoNi,0.00836792125000052
mp-1226366,CrFeCoO4,-1.8696002657142856
mp-1213726,CrFeCoSi,-0.28138676749999897
mp-1226385,CrFeGe2,-0.033006306249999014
mp-1197312,CrFeH18(NF)6,-1.225293459893125
mp-1078458,CrFeO3,-2.09147108275
mp-769978,CrFeO4,-1.7504276658333329
mp-1226245,CrFeP2,-0.5540102973214278
mp-1226496,CrFeRhS4,-0.8627335073214297
mp-1226240,CrFeS2,-0.6351782495312497
mp-1226336,CrFeS4,-0.6585868360416676
mp-1226216,CrFeSb4,0.04044598666666725
mp-1226256,CrFeSi2,-0.3831489324999993
mp-1009592,CrFeTe,0.12453618666666699
mp-1226257,CrFeTeO6,-1.6995843041666665
mp-1182452,CrGa,-0.01829289307692232
mp-1226251,CrGa(BiO3)2,-1.9571589717500002
mp-1226347,CrGa3(CoSe4)2,-0.2961195149107146
mp-1226260,CrGa3(FeSe4)2,-0.288204425625
mp-985440,CrGa3P4,-0.2259274710714285
mp-1070544,CrGa4,-0.15253495399999933
mp-1106199,CrGa7P8,-0.3078940804464283
mp-567981,CrGaCo2,-0.10154341249999987
mp-30570,CrGaFe2,-0.02543203249999948
mp-1226233,CrGaFeSe4,-0.3663008791964292
mp-1097300,CrGaIr2,2.798625587500001
mp-1215140,CrGaMo6(H19O20)2,-1.6102301482274413
mp-770485,CrGaO4,-1.8906117358333328
mp-1018079,CrGaP2,-0.08878427357142815
mp-1183690,CrGaRh2,-0.3807356149999999
mp-1183688,CrGaRu2,-0.1855599424999994
mp-8829,CrGaSe3,-0.5728632566562496
mp-1093813,CrGaTc2,3.0910900775
mp-631421,CrGaTe,0.4943243100000002
mp-20861,CrGe,0.00904317125000098
mp-1183712,CrGeO3,-1.4789178897499995
mp-961725,CrGeRh,-0.010345188333333274
mp-1206594,CrGeRu2,-0.21367785375000106
mp-1226344,CrGeSbO6,-2.1187492174999982
mp-541449,CrGeTe3,-0.16142029800000018
mp-24287,CrH,-0.052261509309999184
mp-735510,CrH10C2(NO4)2,-1.079702527650433
mp-1204986,CrH10N2Cl5O,-1.0448551265005266
mp-763306,CrH10S2(NO2)4,-1.2322811985537998
mp-745120,CrH10SNO10,-1.4804504163105432
mp-1202852,CrH10SO9,-1.585992914833929
mp-1213766,CrH12(CF)8,0.515422937484139
mp-745175,CrH12(ClO2)3,-1.4279683059418176
mp-1202459,CrH12C2(N3O2)2,-0.8089999302087995
mp-745188,CrH12N3(OF2)3,-1.3905018748587998
mp-746364,CrH12Pd(NO)4,-0.890226109907272
mp-744472,CrH14N4Cl3O,-0.9308379761404338
mp-1226479,CrH15N6Cl2O,-0.7407047890539996
mp-744264,CrH15S2O15,-1.6315646454143935
mp-25500,CrH17N4Cl2O3,-0.9995161826418516
mp-743538,CrH18(O3F)3,-1.607225507902581
mp-868120,CrH18C5(NO)4,-0.6291131958103122
mp-758907,CrH18I7N6,-0.5619851490449994
mp-24208,CrH2,-0.03184198908000013
mp-1203990,CrH20N2O6F5,-1.515257241047353
mp-745047,CrH20S2(NO7)2,-1.4362295830201277
mp-1183679,CrH3,0.10773861353500004
mp-1106046,CrH4C4NO10,-1.1800012937179991
mp-1226463,CrH5O4,-1.506078835809999
mp-1196508,CrH6C3(S2N)3,-0.4970066839202631
mp-745180,CrH6SO7,-1.6732093786354991
mp-744322,CrH8(NO2)2,-1.0836441145813334
mp-24528,CrH8C4(S2N3)2,-0.4163502906299987
mp-866468,CrH9(BrN)3,-0.7266656893574996
mp-504919,CrH9(CN2)3,-0.3509489451636833
mp-743958,CrH9C6(S2O)3,-0.5605314780281992
mp-1197579,CrHC7NO5F2,-0.8229283791694106
mp-691133,CrHO2,-2.0202230059050006
mp-762136,CrHSe3O8,-1.4673512034154808
mp-566001,CrHg(PbO3)2,-1.51781145375
mp-1183693,CrHg3,0.35446716000000045
mp-566661,CrHg3(PbO4)2,-1.2701560389285709
mp-565438,CrHg3(SO2)2,-1.0449239928125005
mp-565639,CrHg3O5,-1.0685473043055562
mp-541547,CrHg5O6,-0.9468624789583332
mp-555771,CrHg5S2O5,-0.9176953999519232
mp-567329,CrHg6As4Br7,-0.3734939040277776
mp-558864,CrHgF6,-2.3233111846425
mp-24198,CrHgH18N6Cl5,-0.8315737495399995
mp-19380,CrHgO4,-1.3206657741666668
mp-27215,CrI2,-0.3030863299999999
mp-1213805,CrI3,-0.4322420149999999
mp-1214385,CrI7N6,0.15059809755142847
mp-1183750,CrIn3,0.3043848437499994
mp-28532,CrInBr3,-0.6546569071666667
mp-16735,CrInCo2,0.21383609666666725
mp-1226298,CrInCoS4,-0.8066938842261909
mp-1007961,CrInCu2,0.19104187166666708
mp-1007991,CrInNi2,0.057237329166667024
mp-1226434,CrInNiS4,-0.8476759635119058
mp-769663,CrInO3,-2.1311287044166662
mp-1226229,CrIr,-0.14219598499999894
mp-12083,CrIr3,-0.2278577099999985
mp-631404,CrIrRu,0.6378282083333341
mp-1226254,CrMoAs2,-0.18154307249999926
mp-557158,CrMoF6,-2.9566817546425
mp-1226313,CrMoO3,-1.718179596749998
mp-1213733,CrMoO4,-2.2254412408333337
mp-1095987,CrMoW2,4.9653317700000015
mp-1183691,CrN,-0.7109560161899999
mp-1080200,CrN2,-0.30560613658666586
mp-1197873,CrN3O4,1.1192379442116664
mp-1194673,CrN3O8,0.9278272648216668
mp-1191764,CrN4Cl(O2F)2,0.7208456899866663
mp-1214206,CrN4Cl2O3,-0.3123365909789996
mp-1182156,CrN5Cl3,0.20588718731333305
mp-1192059,CrNF4,-1.2324735624400005
mp-1226232,CrNi,0.14583209000000075
mp-775333,CrNi(PO4)2,-2.2194417416071444
mp-784631,CrNi2,-0.020996673333333615
mp-1213761,CrNi2BO5,-1.915258714490741
mp-631502,CrNi2Hg,0.3846349274999996
mp-774119,CrNi3(PO4)4,-2.033961912857142
mp-1226284,CrNi3Sb4,-0.1684464599999993
mp-772386,CrNi5(PO4)6,-1.9789472848015872
mp-1213740,CrNiAg2F7,-2.1494577416663643
mp-690539,CrNiF6,-2.4699321908925
mp-18726,CrNiO4,-1.4578270924999994
mp-1079966,CrNiP,-0.4975536473809525
mp-1044071,CrNiP2O9,-2.0069695623489006
mp-1226272,CrNiPO5,-2.2208923347991067
mp-1018161,CrNiSb,-0.031091508333332737
mp-1226212,CrNiSb2,-0.054570762500000036
mp-780820,CrO,-1.876060558125
mp-764219,CrOF,-2.6474003741466654
mp-31703,CrOF3,-2.257627272964
mp-765105,CrOF4,-2.094259382043333
mp-21048,CrP,-0.5474534148214278
mp-541142,CrP(HO)5,-1.7120419386660717
mp-7291,CrP2,-0.4339976147619045
mp-743898,CrP2H13(NO5)2,-1.6009005863787753
mp-744586,CrP2H14(NO3)3,-1.4909848822708864
mp-743879,CrP2H15N2O11,-1.5816363092611516
mp-1201441,CrP2H15O14,-1.7557599198776774
mp-1182808,CrP2H16N3O10,-1.4843379633389286
mp-735484,CrP2H17N4O9,-1.3885095033816877
mp-540274,CrP2O7,-2.4692444598035705
mp-566933,CrP2Pb5O13,-2.109223249668367
mp-768680,CrP2S7,-0.7449697542723215
mp-1226189,CrP2W,-0.4448349285714297
mp-605503,CrP3(HO5)2,-2.4008444777292857
mp-581475,CrP3H17N3O13,-1.532497677131312
mp-743545,CrP3H18C6(SO)6,-0.7899386763990897
mp-7302,CrP4,-0.2850356427142856
mp-1188638,CrP4(CO)2,0.6522408057142862
mp-775459,CrP4O11,-2.5366112795200886
mp-775489,CrP6(WO8)3,-2.5361998962605043
mp-1226193,CrP8W3,-0.3815853722619049
mp-615503,CrPC5Br3O5,-0.7214706681428567
mp-1201901,CrPC5Cl3O5,-0.9280559322948572
mp-1196337,CrPH12(CO)4,-0.5283301887764928
mp-774136,CrPHO5,-2.186111706501607
mp-1199506,CrPO10,-0.6694488310119043
mp-764345,CrPO4,-2.5780842274404754
mp-770697,CrPO4F,-2.47536477136898
mp-540466,CrPO5,-2.1941136222704083
mp-1087537,CrPPd,-0.3557634896031748
mp-542096,CrPS4,-0.8722303805654766
mp-1101069,CrPSe3,-0.256745706584821
mp-1072023,CrPb2,0.4881454550000003
mp-1197980,CrPb2F7,-2.851780676833
mp-24901,CrPb2O5,-1.7152419501562504
mp-705034,CrPb5O8,-1.6139247025000003
mp-1191060,CrPb6(Cl3O4)2,-1.1328929228361908
mp-24913,CrPbO3,-1.7453987447500006
mp-19146,CrPbO4,-1.7460468620833325
mp-1226166,CrPd,0.25476084499999985
mp-865786,CrPd3,-0.08393973749999972
mp-1203543,CrPdBr4N5Cl,0.35257715811166673
mp-1063607,CrPdO2,-1.675257208125
mp-1206750,CrPt,-0.13236777499999966
mp-1205064,CrPt(NCl)5,0.2073917747333335
mp-2515,CrPt3,-0.2582038749999995
mp-1226207,CrPt4,-0.10728792399999916
mp-1214330,CrPtBr4N5Cl,0.3408080406116672
mp-772245,CrPtO2,-1.648904768125
mp-1226393,CrRe13B6,-0.2386214448749996
mp-1183703,CrRe3,0.13849140437500118
mp-1226262,CrRe3B4,-0.20723380239583206
mp-1226226,CrRe5B2,-0.20607917510416665
mp-31628,CrReO4,-2.153377192083333
mp-1093584,CrReW2,4.995999038125
mp-1226170,CrRh,-0.007242104999999555
mp-12585,CrRh3,-0.12210250499999994
mp-1183719,CrRhO3,-0.7794455007499991
mp-1226177,CrRu,0.12771927250000026
mp-1213906,CrRu(NF)6,0.4421053202557153
mp-523,CrS,-0.8313112870312498
mp-755263,CrS2,-0.9759726327083342
mp-1213738,CrS2NO8,-1.3233890667087505
mp-22998,CrSBr,-0.9843652630208328
mp-771067,CrSO4,-2.0888781815104167
mp-1198864,CrSO6,-1.630728978736979
mp-1190795,CrSO9,-0.6941650782102264
mp-1641,CrSb,0.09353203250000064
mp-775076,CrSb(PO4)2,-2.4023132207738094
mp-743950,CrSb2H12(C2O)4,-0.3937349877200002
mp-775202,CrSb3(PO4)6,-2.4088413343487405
mp-1226278,CrSb3Pb4O13,-1.8855569343452367
mp-566402,CrSbF10,-2.482881137033333
mp-33857,CrSbO4,-2.1241008933333347
mp-1102668,CrSbPt,0.23664547750000034
mp-9130,CrSbS3,-0.8796294609375004
mp-15236,CrSbSe3,-0.4005666031562498
mp-1226197,CrSbTeO6,-1.8334269869444448
mp-2189,CrSe,-0.306776959296875
mp-1009581,CrSe2,-0.4533147257291669
mp-7576,CrSi,-0.2961487424999998
mp-1200173,CrSi(Ag3O4)2,-1.2264004518749996
mp-1093862,CrSi2Tc,2.6430963525
mp-39540,CrSiH12(OF)6,-1.939105866849231
mp-1196749,CrSiH8(O2F3)2,-2.153379022305
mp-1226241,CrSiMo,-0.19497480916666632
mp-1103085,CrSiNi,-0.3702203516666671
mp-1143241,CrSiO4,-2.20143611
mp-1097121,CrSiOs2,3.684592410000002
mp-865791,CrSiRu2,-0.4112529849999991
mp-1096636,CrSiTc2,3.5404566074999995
mp-3779,CrSiTe3,-0.1806865039999998
mp-1226253,CrSiW,-0.13611844416666705
mp-772477,CrSn(PO4)2,-2.4587313757738087
mp-609,CrSn2,0.1472068025000001
mp-774022,CrSn3(PO4)6,-2.3643476996428574
mp-1213732,CrSn4Au,0.0005644375000001626
mp-1018066,CrSnRh2,-0.2920830587499994
mp-1206591,CrSnRu2,-0.05766968375000125
mp-1226180,CrSnSbO6,-2.134163035277778
mp-1093624,CrTc2Ge,3.5165414662500005
mp-1093974,CrTcGe2,2.4318984575
mp-1183695,CrTcO3,-1.4219555147500005
mp-1079818,CrTe,-0.04199522499999997
mp-775790,CrTe(WO6)2,-1.7391519671875009
mp-540922,CrTe3,-0.1291965712499996
mp-12743,CrTe4Au,-0.1413764199999997
mp-15226,CrWN2,-0.4683867461899993
mp-1226283,CrWO3,-1.35655732875
mp-18785,CrWO4,-2.2728667516666667
mvc-5774,CrWO6,-1.6971565946874998
mp-1204829,CrXeF10,-1.5605014239083328
mp-558341,CrXeF6,-1.9480011855800003
mp-1206348,Cs(AsIr)2,-0.4534416932413784
mp-569012,Cs(AsRh)2,-0.6176097552413786
mp-570837,Cs(AsRu)2,-0.3934156232413791
mp-569897,Cs(BBr)6,-0.7086225322082226
mp-570530,Cs(BCl)6,-1.2270434862128392
mp-23951,Cs(BH)3,-0.3736465938666999
mp-24136,Cs(BH)6,-0.4593677448405306
mp-640353,Cs(BI)6,-0.4371555560543766
mp-1192281,Cs(BO)12,-1.2976258552482762
mp-672338,Cs(Bi2Te3)2,-0.363264678973354
mp-545487,Cs(CO)2,-1.3312689912413795
mp-1206830,Cs(CoAs)2,-0.3868135712413789
mp-557018,Cs(CoS)2,-0.8713046068663793
mp-571343,Cs(CoSe)2,-0.4655978166788792
mp-1238823,Cs(CrS2)2,-1.2082843142795563
mp-28884,Cs(FeAs)2,-0.26405893324137963
mp-1207125,Cs(FeP)2,-0.4917867800985221
mp-12119,Cs(FeSb)2,-0.026653495241379232
mp-1183843,Cs(Mg4Al3)4,0.05877298392390026
mp-11181,Cs(MnP)2,-0.4762002160985226
mp-541213,Cs(MoO3)3,-2.1001382340351467
mp-561682,Cs(MoS)3,-1.0993736476277711
mp-1226696,Cs(MoS)9,-0.960653664356284
mp-1104663,Cs(MoSe)3,-0.7190547081411641
mp-1214012,Cs(Nb2Cl5)3,-1.7330419214821309
mp-1229166,Cs(NpSe3)2,-1.015222978363266
mp-559998,Cs(OsO3)2,-1.690928059856321
mp-1207365,Cs(PIr)2,-0.6396192720985212
mp-1206405,Cs(PRh)2,-0.7405034500985224
mp-1207015,Cs(PRu)2,-0.6227362040985213
mp-29704,Cs(SO2)2,-2.0090061909759847
mp-8890,Cs(SbS2)2,-0.9009097782081282
mp-3312,Cs(SbSe2)2,-0.5105688879402704
mp-561786,Cs(TeO3)2,-1.6627801781896556
mp-1229164,Cs(ThSe3)2,-1.4784303008632669
mp-1229153,Cs(ThTe3)2,-1.0628317840229888
mp-568039,Cs(WCl3)3,-1.375479691195916
mp-25175,Cs(WO3)2,-2.2162839104118777
mp-763713,Cs(WO3)3,-2.2447697590351465
mp-504805,Cs(Zr3I7)2,-0.9205930464860432
mp-685609,Cs10(Mo2N5)3,-0.5957319268097518
mp-1202492,Cs10Ge2O9,-1.7321998217056649
mp-1199790,Cs10P4PdSe16,-0.8346791717142061
mp-581173,Cs10Si7O9,-1.8388315208968824
mp-1199833,Cs10Tl6SiO4,-1.0330267318842363
mp-1203755,Cs11Fe10S16O,-1.0841040669612072
mp-562001,Cs11O3,-0.7984941637161332
mp-572722,Cs11Rb7O3,-0.5146248571161742
mp-1197143,Cs11Tl6Cl29,-1.7328309165829536
mp-582185,Cs12Nb(In2As3)3,-0.43313507891009856
mp-1226383,Cs12Sn2As6O,-0.5212403631301314
mp-1226387,Cs12Sn2Bi6O,-0.4277162336063219
mp-1198905,Cs12Sn8GeO4,-0.8706080556793103
mp-1201827,Cs13Nb2(In3As5)2,-0.4352327000222471
mp-1087549,Cs15W7N19,-0.5983764588615477
mp-1228320,Cs19(W2N5)6,-0.6841463932677215
mp-1178471,Cs2(B2O3)9,-2.783644440131145
mp-1203769,Cs2(CoN8)3,0.05198897036090416
mp-1213727,Cs2(PSe2)3,-0.5118292668549884
mp-1227596,Cs2(WO4)3,-1.7670076292596362
mp-1113578,Cs2AgAsBr6,-1.0112328507413793
mp-1113543,Cs2AgAsCl6,-1.5538402626973793
mp-561622,Cs2AgAsS4,-0.9681791810829744
mp-1097285,Cs2AgAu,0.268672816896552
mp-1113575,Cs2AgAuBr6,-0.892206602241379
mp-567776,Cs2AgAuCl6,-1.4373540881973792
mp-1113576,Cs2AgAuF6,-2.0708380979553795
mp-1113264,Cs2AgBiI6,-0.8659440037413791
mp-640052,Cs2AgBr3,-1.3418838129022987
mp-1190886,Cs2AgCl3,-1.776012497448966
mp-510565,Cs2AgF4,-2.358833157453399
mp-1206546,Cs2AgF6,-2.127987744394866
mp-540881,Cs2AgI3,-1.1401564608189654
mp-1113622,Cs2AgIrF6,-2.20361221495538
mp-1113243,Cs2AgMoBr6,-1.0170298252413794
mp-1113232,Cs2AgMoCl6,-1.6114553191973795
mp-1112943,Cs2AgSbBr6,-1.0949666467413792
mp-1112940,Cs2AgSbCl6,-1.6442348696973788
mp-1112941,Cs2AgSbI6,-0.8241702767413791
mp-510710,Cs2AgSbS4,-0.9851364885829744
mp-572149,Cs2Al(NO3)5,-1.4387777717274113
mp-1226182,Cs2Al(TeO4)3,-1.8527567187452103
mp-554206,Cs2Al2As2O7,-2.5171979793202914
mp-560387,Cs2Al2P2O9,-3.0089773958633
mp-557359,Cs2Al2Sb2O7,-2.5289498570126003
mp-1201495,Cs2Al2Si3O10,-3.224809201759635
mp-1113577,Cs2AlAgBr6,-1.240223546241379
mp-1113621,Cs2AlAgCl6,-1.8688789961973797
mp-1113614,Cs2AlAgF6,-3.0777345959553792
mp-1113424,Cs2AlAuBr6,-1.1261412582413797
mp-1113220,Cs2AlAuCl6,-1.7316363141973796
mp-1113113,Cs2AlAuF6,-2.8953357669553785
mp-1112932,Cs2AlAuI6,-0.8127425402413792
mp-1113187,Cs2AlCuCl6,-1.8011565291973797
mp-989648,Cs2AlGaH6,-0.1472536974133792
mp-1112629,Cs2AlHgBr6,-1.210162045241379
mp-1112616,Cs2AlHgCl6,-1.8140280211973792
mp-1113101,Cs2AlHgF6,-3.0069600869553796
mp-1113281,Cs2AlInBr6,-1.3199879515747128
mp-1113280,Cs2AlInCl6,-1.9521399065307128
mp-1112586,Cs2AlInF6,-3.1805545222887126
mp-989535,Cs2AlInH6,-0.16123936474671294
mp-1112896,Cs2AlInI6,-0.9606446285747126
mp-542656,Cs2AlP3O10,-2.8718631688338974
mp-1112506,Cs2AlTlBr6,-1.3575582817413792
mp-1112505,Cs2AlTlCl6,-1.9934068666973799
mp-1111952,Cs2AlTlF6,-3.2220139344553784
mp-989575,Cs2AlTlH6,-0.1946821939133791
mp-1112111,Cs2AlTlI6,-0.9927666407413792
mp-557115,Cs2As2OF10,-2.7005689370375867