task_id,composition,formation_energy_per_atom
mp-540760,FePCl8,-1.185992824072286
mp-1190395,FePH12(CBr)4,-0.4350873936628572
mp-1212774,FePH3CO7,-1.799266875807911
mp-541423,FePH4NO4F,-1.8184859262660704
mp-601661,FePH5CO4,-1.4302205128327377
mp-1237189,FePH5CO8,-1.7988434468120529
mp-705481,FePH5NO4F,-1.0953754037548349
mp-1181488,FePH6(NO2)2,-1.4135416847230604
mp-735529,FePH6NO5,-1.6088795287494893
mp-767277,FePHO5,-1.9891872277516072
mp-1212772,FePNO4F,-1.3844197155578577
mp-540111,FePO4,-2.4269063161904776
mp-25518,FePO4F,-2.2755282011904083
mp-1212855,FePO5,-1.7804228709608847
mp-1196792,FePO6,-1.5216938977678574
mp-1224852,FePRh,-0.4630722018253961
mp-5864,FePS3,-0.6421925998660711
mp-1103067,FePSe,-0.3717391794122034
mp-2928,FePSe3,-0.12555304858482189
mp-21239,FePb2(CN)6,0.04933853954800042
mp-1181338,FePb2Cl3O5,-1.0205956487300007
mp-1205806,FePb2WO6,-1.6342450767499996
mp-640765,FePbC5N6O,0.2439417498728582
mp-973579,FePbO3,-1.47083422675
mp-631895,FePbW2,0.8635256424999991
mp-2831,FePd,-0.06264635500000004
mp-1224793,FePd2,0.2533788566666668
mp-2260,FePt,-0.2395568199999997
mp-1212788,FePt(CN)6,0.1459826595157137
mp-649,FePt3,0.0811927825000005
mp-1178216,FePtO2,-1.2981080331250006
mp-973534,FeRe,0.08677457624999896
mp-1224899,FeRe(PbO3)2,-1.7369750045000003
mp-1224924,FeRe2(MoS4)2,-0.9949464174999998
mp-1184298,FeRe3,0.010884366875000495
mp-1918,FeRh,-0.04546077500000133
mp-1184368,FeRh3,-0.037284953750001286
mp-1224803,FeRu,0.13014406749999985
mp-1213535,FeRu(NF)6,0.4083904873985712
mp-505531,FeS,-0.845202139531251
mp-1522,FeS2,-0.9484051510416668
mp-1213516,FeS2(NO7)2,-0.6924356371255257
mp-1213629,FeS2NO20,-0.07591452168770789
mp-1191504,FeS2NO8,-1.2818958754587502
mp-556297,FeS3(NCl2)2,-0.6774511039987509
mp-554079,FeS3N2Cl5,-0.7089214896134095
mp-1181369,FeS4Br4N5,0.13562181227499895
mp-557331,FeS4N4Cl3,-0.40937880254583386
mp-559716,FeS4N4Cl5,-0.4933258301478572
mp-1181467,FeS6(NO2)9,0.06544159916779456
mp-649334,FeSCl7,-0.9891336513202779
mp-1182041,FeSClO10,-0.4974330982555776
mp-622785,FeSNO,-0.4462716136418745
mp-1199695,FeSO10,-0.5954138224913197
mp-1197109,FeSO11,-0.17311163233173069
mp-558577,FeSO3,-1.8744168515625008
mp-19254,FeSO4,-2.0518234352604154
mp-1192775,FeSO5,-1.7093466054017847
mp-1181387,FeSO6,-0.967549541757812
mp-1181666,FeSO7,-0.8860775308680557
mp-1203935,FeSO8,-0.7987723659062509
mp-2619,FeSb,0.021972969999999314
mp-1181303,FeSb(ClO)8,-0.1873097189488888
mp-1213459,FeSb(P2O7)2,-2.4472342715535698
mp-861596,FeSb(PO4)2,-2.335566449940476
mp-20714,FeSb2,-0.023997586666666848
mp-651106,FeSb2WC8Se2(O2F3)4,-1.53293196144022
mp-971669,FeSb3,-0.02245121500000113
mp-776516,FeSb3(PO4)4,-2.2998858184821427
mp-774425,FeSb3(PO4)6,-2.378432754054622
mp-1224890,FeSb3Pb4O13,-1.832430449107144
mp-22369,FeSb6(Pb2S7)2,-0.7004467632750004
mp-1201549,FeSb6(Pb2Se7)2,-0.3207006400125005
mp-1224896,FeSb6Pd,-0.18948331375000027
mp-988996,FeSbAs,-0.11634105500000065
mp-675127,FeSbO4,-1.9258518016666668
mp-623035,FeSbPt,0.2151488308333332
mp-1206853,FeSbRh2,-0.2224981037500013
mp-27904,FeSbS,-0.5844706896875008
mp-1224850,FeSbTe,-0.08611926333333386
mp-20311,FeSe,-0.27558738929687543
mp-760,FeSe2,-0.3477657107291676
mp-568653,FeSe2NCl6,-0.6901845991627503
mp-1196307,FeSe3O8,-1.267836226315105
mp-607953,FeSeBr7,-0.3205386476215277
mp-28189,FeSeCl7,-0.99031973682375
mp-1071360,FeSeN,0.9826483946754164
mp-1190442,FeSeO3F,-1.788813926838958
mp-769869,FeSeO4,-1.418228041432292
mp-871,FeSi,-0.5109618987500006
mp-1189794,FeSi(AgS2)2,-0.6796703457812505
mp-1212763,FeSi2C4(Cl3O2)2,-1.1266245449741172
mp-1097398,FeSi2Tc,2.611324195
mp-1196266,FeSi6(H27C10)2,-0.2641491691417278
mp-640075,FeSiGe,-0.19164236958333447
mp-1224916,FeSiMo,-0.3189916000000004
mp-1103705,FeSiNi,-0.4148173708333331
mp-630331,FeSiO3,-2.672791263625
mp-1191756,FeSiO4,-2.179853834583335
mp-560618,FeSiP3O11,-2.6836118307924117
mp-3464,FeSiRu2,-0.36320963250000027
mp-862790,FeSiTc2,-0.27673889500000115
mp-961653,FeSiW,-0.3064440433333348
mp-22752,FeSn2,0.01811015833333348
mp-21231,FeSn2(CN)6,0.07967683888133384
mp-1184775,FeSn3,0.5769193299999991
mp-772443,FeSn3(PO4)6,-2.335842610525211
mp-1196193,FeSn4H24C8(Se5N)2,-0.2888202854607648
mp-554751,FeSnF6,-2.8160016040174995
mp-541314,FeSnH12(OF)6,-1.839585741272308
mp-1178212,FeSnO3,-1.95324627875
mp-1202032,FeSnO6,-0.5945434562500012
mp-1225146,FeSnPt,-0.0923519033333342
mp-1018062,FeSnRh2,-0.3023462637500005
mp-636599,FeSnRu2,0.24876272624999984
mp-631425,FeTc2Cl,0.6378635216849995
mp-1184276,FeTc2Ge,-0.06298244875000059
mp-21273,FeTe,-0.04647857000000055
mp-849683,FeTe(PO4)2,-2.250142421607143
mp-19880,FeTe2,-0.17441415833333393
mp-566807,FeTe2BrO5,-1.4624848125000005
mp-569390,FeTe2ClO5,-1.5645221809177785
mp-1201424,FeTe3BrO7,-1.4859618434374997
mp-1201019,FeTe3ClO7,-1.5595995239174991
mp-1212714,FeTe3O8,-1.484940251666666
mp-1197776,FeTe3S3Cl3(OF2)9,-2.060748544855068
mp-565337,FeTe6O13,-1.5434311360624997
mp-540998,FeTeBr7,-0.4350881044444448
mp-540997,FeTeCl7,-1.139738004202223
mp-566335,FeTeO3F,-1.9411740933233328
mp-1197402,FeTeO5,-0.8997270642857131
mp-638705,FeTeS2N2Cl5,-0.7049810358350012
mp-1194242,FeWCl5,-1.1298435466142858
mp-565201,FeWClO4,-1.886761132608572
mp-29076,FeWN2,-0.3994060186899997
mp-19421,FeWO4,-2.092350370833332
mp-27163,Ga(Ag3Se2)3,-0.17630512197265613
mp-28632,Ga(Bi3O5)4,-1.6600549022727271
mp-571502,Ga(BiBr)4,-0.4814403998611113
mp-569237,Ga(BiCl)4,-0.9072512488562968
mp-1232314,Ga(CuN)3,0.3253129661228574
mp-1225246,Ga(FeO2)2,-1.7838672942857141
mp-626729,Ga(HO)3,-1.6961979231585715
mp-561104,Ga(IO3)3,-1.0878107712499998
mp-2885,Ga(MoS2)4,-1.1739730524999994
mp-567394,Ga(MoSe2)4,-0.5812599552884614
mp-1213377,Ga(Ni3B2)4,-0.2885761428571419
mp-15560,Ga(PO3)3,-2.5847445641804017
mp-567352,Ga(SbBr)4,-0.4478107734722221
mp-31251,Ga(SbCl)4,-0.8729349640877773
mp-1197613,Ga(W3O10)4,-1.9016019235849069
mp-504827,Ga10GePb3O20,-2.1580770952941184
mp-768931,Ga10Si2O19,-2.4014228027016133
mp-676333,Ga11NO15,-2.1172199544862957
mp-1200059,Ga11NO17,-1.9341199002975864
mp-675033,Ga12Ag2Te19,-0.2545187812121214
mp-1224934,Ga12OF36,-2.8387463131446933
mp-1200062,Ga16Rh3,-0.2845477389473687
mp-30665,Ga17Rh10,-0.5968723526851849
mp-1194289,Ga2(Co7B2)3,-0.19839496103448231
mp-676645,Ga2(Hg4Te5)3,-0.18754695551724154
mp-1213624,Ga2(MoO4)3,-2.1063566808823526
mp-1193255,Ga2(Ni7B2)3,-0.3037903186206896
mp-541451,Ga2(SO4)3,-2.079338980128677
mp-1181313,Ga2(TeO3)3,-1.7772709243750004
mp-772686,Ga2(WO4)3,-2.119810303529411
mp-1225030,Ga21Ni5,-0.005312803846153931
mp-1200191,Ga21Rh4,-0.2895757420000007
mp-530844,Ga23N5O27,-1.9191911644663642
mp-1224864,Ga2Ag2Se3S,-0.5454558687304689
mp-1224849,Ga2Ag2TeSe3,-0.4021325807226561
mp-1224789,Ga2AsP,-0.3587126717857139
mp-18561,Ga2AsRh5,-0.5171534093749992
mp-2776,Ga2Au,-0.2299966299999999
mp-571598,Ga2Au7,-0.09785747370370368
mp-1195223,Ga2B3O8,-2.4327514326923065
mp-631553,Ga2BSb,0.9242302570833334
mp-1018076,Ga2BiAs,-0.10080928999999994
mp-556712,Ga2BiS4,-0.9712424576785712
mp-571085,Ga2BiSe4,-0.5400761845535713
mp-1147573,Ga2Co(SO)2,-0.35023980723214265
mp-1224829,Ga2Co6C,-0.0833722398611106
mp-1184229,Ga2CoIr,-0.32200108499999924
mp-1224798,Ga2CoNi,-0.3066739250000001
mp-765889,Ga2CoO4,-2.048772936428572
mp-1200913,Ga2CoP3NO14,-1.6740760700623127
mp-1096441,Ga2CoRh,1.927020975
mp-865779,Ga2CoRu,-0.29559725875
mp-4152,Ga2CoS4,-0.8979956866071436
mp-11359,Ga2Cu,-0.08310403666666666
mp-1147755,Ga2Cu(SO)2,-0.2049454972321431
mp-1201552,Ga2Cu(SeO3)4,-1.4746006444407906
mp-1203611,Ga2Cu3(SeO3)6,-1.3475744991056038
mp-1224952,Ga2CuAg(TeSe)2,-0.3486798121484376
mp-1224814,Ga2CuAgS4,-0.8626421520312499
mp-1224837,Ga2CuAgSe4,-0.4543156892968749
mp-1224861,Ga2CuAgTe4,-0.27551007875
mp-29300,Ga2CuCl8,-1.3750213828254545
mp-34783,Ga2CuO4,-1.838391869285714
mp-1093625,Ga2CuPd,1.1413221750000004
mp-1203192,Ga2CuSe3O10,-1.5087608816113276
mp-1224904,Ga2Fe(PO4)3,-2.5367828317460326
mp-649039,Ga2Fe2Bi2O9,-1.7367910114166658
mp-616672,Ga2Fe2S5,-0.8039348711458345
mp-1224932,Ga2Fe6C,-0.08651467986111072
mp-1224867,Ga2FeCo,-0.17044496749999993
mp-1225169,Ga2FeNi9,-0.13848015333333308
mp-690544,Ga2FeO4,-2.1309619550000005
mp-20793,Ga2FeS4,-0.9006212180357152
mp-1078053,Ga2FeSe4,-0.4430679634821431
mp-1225113,Ga2Ge(MoS2)8,-0.9934279407407408
mp-636461,Ga2Ge4Pb3O14,-2.017399770326087
mp-542464,Ga2H6(SeO4)3,-1.5083133679348364
mp-1203326,Ga2Hg3Cl8,-1.2532133112369228
mp-1212695,Ga2Hg5Se8,-0.32834846724999994
mp-755239,Ga2HgO4,-1.7817501135714282
mp-4809,Ga2HgS4,-0.9200223508928572
mp-4730,Ga2HgSe4,-0.5032954091964287
mp-16337,Ga2HgTe4,-0.2980560571428573
mp-636675,Ga2I3,-0.4293416684999997
mp-31253,Ga2Ir,-0.4383013172222216
mp-865743,Ga2IrRh,-0.5366037199999996
mp-866041,Ga2IrRu,-0.40268483875
mp-565314,Ga2Mo(SeO5)2,-1.7907863176458323
mp-1224878,Ga2Ni5Te4,-0.23372034545454634
mp-1224913,Ga2Ni7Ge2,-0.2929229599999998
mp-580999,Ga2NiCl8,-1.3885143141890908
mp-35236,Ga2NiO4,-1.9364401914285716
mp-510656,Ga2NiP3H8NO14,-1.9384508274230527
mp-1184299,Ga2NiRu,-0.32938929374999937
mp-570875,Ga2Os,-0.16040006499999984
mp-1213475,Ga2P2H4NO8,-1.9846718690379823
mp-705497,Ga2P2H9NO11,-1.7862573964198285
mp-1197893,Ga2P2N2O8F3,-1.4260792438303356
mp-24563,Ga2P3(HO3)3,-2.0785326640316804
mp-1197103,Ga2P3(NO4)3,-1.9061827294284288
mp-721075,Ga2P3H11O13,-1.7860716188792614
mp-758916,Ga2P3H12(NO4)3,-1.7266433452190182
mp-1182033,Ga2P4C6NO14,-0.8843197511463495
mp-557672,Ga2Pb2S5,-0.994235644618056
mp-20496,Ga2PbO4,-2.0812415557142856
mp-1196984,Ga2PbS4,-1.045558864107143
mp-571171,Ga2PbSe4,-0.5936317352678567
mp-405,Ga2Pd5,-0.5629640085714287
mp-30945,Ga2PdBr8,-0.7138189372727275
mp-30946,Ga2PdI8,-0.43578927363636377
mp-22095,Ga2Pt,-0.5817210900000003
mp-572409,Ga2RhC4Cl7O4,-1.2323165451566669
mp-1072429,Ga2Ru,-0.4064600983333335
mp-1184318,Ga2RuPt,-0.4393454862499997
mp-867292,Ga2RuRh,-0.5287415762499998
mp-555282,Ga2S5N5Cl7,-0.7489624146069742
mp-1202473,Ga2Sb2H16C4S7N2,-0.5416677948823482
mp-1195835,Ga2SbTe4Cl7,-1.0240680682371432
mp-14280,Ga2Sn2S5,-0.9547389650347228
mp-1194838,Ga2SnGeS6,-0.8892446261875001
mp-1093790,Ga2TcPd,1.9356089924999995
mp-570186,Ga2Te2Br7,-0.6714763656818182
mp-542662,Ga2Te2Cl7,-1.2744490604836367
mp-566566,Ga2Te2MoO10,-1.9086071281666668
mp-543040,Ga2Te3(HO2)6,-1.5998872683356526
mp-30187,Ga2Te4O11,-1.7274733884558822
mp-2371,Ga2Te5,-0.2358193814285719
mp-28931,Ga2TeO6,-1.9432120136111108
mp-27255,Ga2TeS2,-0.8310496086250005
mp-28423,Ga2TeSe2,-0.5114840904375001
mp-770692,Ga2WO6,-2.195596675
mp-631305,Ga2WSe,0.7631215928515624
mp-977324,Ga3(Ni10B3)2,-0.3275698372413803
mp-1203833,Ga31Mo6,-0.1239675309459456
mp-1184257,Ga3Ag,0.03533791999999991
mp-1184232,Ga3As,0.08334742125000005
mp-1184296,Ga3Au,-0.03337373499999964
mp-1184351,Ga3B,0.4946658170833338
mp-28869,Ga3B4Pt9,-0.3986020169791669
mp-1019743,Ga3BN4,-0.6417769495233321
mp-983237,Ga3Bi,0.09644989125000024
mp-29075,Ga3Bi5Cl12,-1.2113833854559999
mp-616204,Ga3Cl7,-1.457198053282
mp-20559,Ga3Co,-0.2600609450000002
mp-1224805,Ga3Co4Ge,-0.2182868906250004
mp-984518,Ga3Cu,0.06554311000000013
mp-1224939,Ga3Cu3(Te2Se)2,-0.32915016268229164
mp-1224891,Ga3Cu3SiSe8,-0.4620595272499993
mp-636368,Ga3Fe,-0.2321811918749992
mp-1225352,Ga3Fe4Co8Si,-0.2645720106249998
mp-973875,Ga3Ge,0.09419973875000044
mp-1224871,Ga3GePt8,-0.4938833195833325
mp-1184268,Ga3Hg,0.08908707249999992
mp-1189634,Ga3Ir,-0.3404941512499997
mp-754929,Ga3NO3,-1.7745279526614286
mp-1224940,Ga3Ni12Sn,-0.25463690343750045
mp-30029,Ga3Ni13Ge6,-0.3346318451515146
mp-11397,Ga3Ni2,-0.4040110420000005
mp-1204832,Ga3Ni27B14,-0.3187086485984852
mp-11398,Ga3Ni5,-0.37688761624999945
mp-29749,Ga3Ni5Ge2,-0.3585494064999999
mp-1212686,Ga3O5,-2.01961118234375
mp-570844,Ga3Os,-0.26077635000000043
mp-1184292,Ga3P,0.14947035696428612
mp-721128,Ga3P3H6C2NO13,-1.7270932705099489
mp-1203908,Ga3P3H6CNO13,-1.8850533787232808
mp-3107,Ga3PO7,-2.442662100990259
mp-1184344,Ga3Pb,0.05633177499999986
mp-556117,Ga3Pb5F19,-2.8330392212077777
mp-2408,Ga3Pd5,-0.6318311868750008
mp-31467,Ga3Pd7,-0.5851250700000001
mp-1184218,Ga3Pt,-0.1716378624999999
mp-30663,Ga3Pt5,-0.5554564449999999
mp-1188393,Ga3Re,-0.08355767812499959
mp-1188977,Ga3Rh,-0.421135149375
mp-672204,Ga3Ru,-0.3781367924999994
mp-1181356,Ga3S2O15,-1.2400337708437497
mp-1184258,Ga3Sb,0.07505604125000033
mp-1196451,Ga3Sb7(S4Cl7)2,-1.151738093691876
mp-1184214,Ga3Se,-0.0447879946484373
mp-1183982,Ga3Si,0.19950203750000028
mp-1195290,Ga3Si5P10H36C12N4Cl11,-0.563074999470722
mp-1224819,Ga3SiNi4,-0.4337603487499999
mp-1184031,Ga3Sn,0.049210673750000655
mp-1183998,Ga3Tc,-0.05113703249999979
mp-1184010,Ga3Te,0.020975027500000017
mp-675954,Ga3Te3As,-0.31953811857142816
mp-28608,Ga3Te3I,-0.4079657257142856
mp-1225042,Ga3Te9Pd32,-0.3498836059090913
mp-1203027,Ga40AgMo8,-0.13621603244897998
mp-1204344,Ga40CuMo8,-0.12928780122449007
mp-1204805,Ga40GeMo8,-0.1248821643877548
mp-1195837,Ga40Mo8Au,-0.1468868673469391
mp-1196543,Ga40Mo8C,-0.05588069446428549
mp-1225257,Ga40Mo8S,-0.09659215457270362
mp-1203338,Ga40SnMo8,-0.1246351417346948
mp-1195805,Ga41Mo8,-0.1254638199999995
mp-530841,Ga41N11O45,-1.8326578736333001
mp-1224948,Ga4B2O9,-2.453797767972224
mp-23519,Ga4Bi2O9,-2.084996571416667
mp-1224862,Ga4Bi3As,-0.007684017499999474
mp-1079228,Ga4BiAs3,-0.1863718200000002
mp-1197621,Ga4Cu9,-0.09755139269230777
mp-540538,Ga4Fe3,-0.17366600714285732
mp-1200793,Ga4Ge(PbS3)4,-0.9679982592261908
mp-29455,Ga4GeO8,-2.245242682692308
mp-531297,Ga4GeS4,-0.8532769700000008
mp-1200504,Ga4H12C15O31,-1.4122366310232255
mp-669455,Ga4Hg11(AsBr4)4,-0.5423217317142855
mp-1203087,Ga4Hg11(PCl4)4,-0.9760412868780408
mp-30655,Ga4Ni3,-0.3895262878571423
mp-647209,Ga4P4O17,-2.3789569685928567
mp-1196653,Ga4SbS9N3O2,-0.15973547256328927
mp-1197409,Ga4Si12H138C55S4,-0.31099438888291125
mp-755053,Ga4SiO8,-2.4442793553846154
mp-676038,Ga5(PS)3,-0.6958327653287345
mp-1224870,Ga5Ag13,-0.03633515277777772
mp-1212666,Ga5CuSe8,-0.5500443399107142
mp-1212671,Ga5CuTe8,-0.30255443071428595
mp-570920,Ga5Fe6,-0.14216815999999968
mp-1212680,Ga5Ir3,-0.4654897865624994
mp-1095578,Ga5Ni,-0.16044615916666652
mp-30660,Ga5Pd,-0.2453965375000001
mp-1199016,Ga5Pt,-0.30164537166666666
mp-30923,Ga5Rh3,-0.5936907925000003
mp-1103522,Ga5W2,0.0674598442857136
mp-1225073,Ga6AgSb7(TeCl3)8,-1.085571642896522
mp-1196993,Ga6CuSb7(TeCl3)8,-1.0814249128965217
mp-1202559,Ga6P8H56C14N7O32F,-1.275343510606555
mp-531948,Ga6SnTe10,-0.3223076856862745
mp-686076,Ga6Te10Pb,-0.3398799749999996
mp-676349,Ga7(CuSe4)3,-0.5021290415056818
mp-767269,Ga7(Fe3O8)3,-2.03538759825
mp-16852,Ga7Ni3,-0.3200491105000005
mp-1106289,Ga7Pd3,-0.4528131200000004
mp-1188512,Ga7Pt3,-0.5522812559999999
mp-1203106,Ga7Sb7(Te4Cl13)2,-1.1340790411408337
mp-18388,Ga7Te10,-0.32460272264705897
mp-14216,Ga8(Pb3O7)3,-1.9227078369407893
mp-1228185,Ga8As16H102C32(S12O)3,-0.4294416989301521
mp-28924,Ga8BIr4,-0.4279789370512821
mp-568017,Ga8Cu3W2,-0.10071488288461583
mp-1203849,Ga8Sb7Se8Cl29,-1.2049963727555768
mp-1197560,Ga8Sb7Te8Cl29,-1.1662419991738462
mp-1191262,Ga9Ir2,-0.30198764227272723
mp-21589,Ga9Ni13,-0.3866421045454535
mp-11478,GaAg,0.05060006000000028
mp-1224898,GaAg(GeSe3)2,-0.32774559315625
mp-654129,GaAg(PSe3)2,-0.22303806445982133
mp-578,GaAg2,-0.04293990999999961
mp-1224795,GaAg3,-0.018570874999999543
mp-1207208,GaAg3F6,-1.845647361714
mp-1224946,GaAgGeS4,-0.7928473582738091
mp-11020,GaAgO2,-1.5956507968749998
mp-5342,GaAgS2,-0.8416666920312501
mp-5518,GaAgSe2,-0.4540553717968749
mp-1224820,GaAgSeS,-0.6415677619140623
mp-1224848,GaAgSnSe4,-0.4071129599107139
mp-4899,GaAgTe2,-0.28685070999999995
mp-1224853,GaAgTeSe,-0.3545023796484372
mp-1195440,GaAs(H2O3)2,-1.6493639215191669
mp-1183979,GaAs3,0.3324601037499999
mp-3996,GaAsO4,-1.9540722405555568
mp-1213183,GaAsO6,-0.9795773228125002
mp-1025346,GaAsPd5,-0.4905299264285716
mp-1224900,GaAsRh4,-0.4160766716666669
mp-30379,GaAu,-0.2291650074999998
mp-1202583,GaAu(I4N)2,0.6627813637699997
mp-30380,GaAu2,-0.1493078350000001
mp-11021,GaAuO2,-1.5158893506250006
mp-1203116,GaB2(PO6)2,-2.0176657389775916
mp-1019740,GaB3N4,-0.8711778199399998
mp-30150,GaBH6,-0.0715006735483333
mp-1007823,GaBN2,-0.6837263828566664
mp-1078259,GaBO3,-2.543541975083333
mp-505743,GaBPbO4,-2.3127265577380944
mp-849761,GaBi25O39,-1.6568610854423085
mp-1183974,GaBi3,0.12906832374999988
mp-1224998,GaBi3Sb2O11,-1.8993871127205884
mp-558285,GaBiO3,-1.97478599425
mp-1237377,GaBiSe,0.15483165046875
mp-28384,GaBr2,-0.7783712508333333
mp-30953,GaBr3,-0.8380475000000001
mp-1184015,GaC,0.999201635625
mp-1064861,GaC3,3.2248128834375
mp-568848,GaCl2,-1.4122568067566668
mp-30952,GaCl3,-1.547059977445
mp-1212662,GaClO,-1.97685344317
mp-1121,GaCo,-0.2763156499999999
mp-1200291,GaCo(Mo3O20)2,-0.5051811925000003
mp-1018060,GaCo2Ni,-0.12734981499999964
mp-1184009,GaCo3,-0.08472200624999981
mp-1224812,GaCo4,0.050496774000001216
mp-1224863,GaCo4Ge3,-0.22634452562499965
mp-605176,GaCoPH18C9NCl2O3,-0.5345060501028579
mp-1097340,GaCoRh2,2.4883682225
mp-1212689,GaCu(WO4)2,-1.9489074675
mp-1077001,GaCu2,0.017048580000000275
mp-865798,GaCu3,-0.09680502874999952
mp-1181331,GaCu3HgSe4,-0.11406929048611128
mp-1224832,GaCu4,0.030619660000000694
mp-1224944,GaCu4Ni15,-0.023480194500000096
mp-1097611,GaCuAu2,1.0935569725000005
mp-1096988,GaCuBr3,-0.17325977100000006
mp-1212660,GaCuBr4,-0.678389978333333
mp-29362,GaCuCl4,-1.297494453006667
mp-1224851,GaCuGeSe4,-0.3878250470535716
mp-29403,GaCuI4,-0.4129651233333333
mp-1184005,GaCuNi2,-0.2522734349999993
mp-4280,GaCuO2,-1.6846623881249991
mp-1184030,GaCuPd2,-0.4729376875
mp-644280,GaCuPt2,-0.4779753725000005
mp-862485,GaCuRh2,-0.3724753649999997
mp-5238,GaCuS2,-0.91094170828125
mp-4840,GaCuSe2,-0.4777602705468746
mp-1224922,GaCuSnSe4,-0.41507272276785706
mp-3839,GaCuTe2,-0.2811921962499997
mp-1224994,GaCuTeSe,-0.3567551808984373
mp-588,GaF3,-2.9473407121425
mp-1224926,GaFe,-0.0601822400000005
mp-1225056,GaFe(BiO3)2,-1.6436140357500009
mp-1225232,GaFe19N5,-0.1195814652759998
mp-1224880,GaFe2,0.001475296666666755
mp-1079848,GaFe2AgTe4,0.012658246249999115
mp-1097025,GaFe2BO5,-2.2275679639351846
mp-636212,GaFe2Co,-0.0461534324999997
mp-1225089,GaFe2Co4Si,-0.2988073937499989
mp-622990,GaFe2Ni,-0.01810299999999998
mp-1212637,GaFe3N,-0.2156705664759997
mp-1224889,GaFe4,0.011479475999999522
mp-1225114,GaFe4Co8Si3,-0.3200909006249999
mp-1224930,GaFe7N2,-0.046750548475999666
mp-30551,GaFeCo2,-0.2251785025000004
mp-1225119,GaFeGe,-0.10925428833333466
mp-865247,GaFeIr2,0.06537578499999963
mp-1224929,GaFeNiO4,-1.7467926199999997
mp-649086,GaFeO3,-2.0624990382500004
mp-865170,GaFeRh2,-0.4286535200000001
mp-1184055,GaFeRu2,-0.14414988750000024
mp-1224769,GaGe,0.1619703575
mp-1212670,GaGe(MoS2)4,-0.6892200655357144
mp-1197686,GaGe2H5CNO6,-1.4355982526081252
mp-1184140,GaGe3,0.2563244437500001
mp-684743,GaGe5H6C4NO12,-1.1485557589344824
mp-1183980,GaGeO3,-1.4159975257500002
mp-1224823,GaGePt6,-0.3932294656249997
mp-865895,GaGeRu2,-0.29770218874999976
mp-675437,GaGeS4,-0.6898748781249999
mp-1224830,GaGeTe2,-0.0861866400000002
mp-1183988,GaH,0.37419842569
mp-600257,GaH12C4NCl3,-0.5552108995523808
mp-733840,GaH12N3(OF2)3,-1.382617572658799
mp-570588,GaH13(C2N)2,-0.2583389480909993
mp-720727,GaH15N4(OF3)2,-0.999126904587858
mp-1202913,GaH15N5Cl3,-0.8151346341033321
mp-23984,GaH18C3(N3F2)3,-1.065992815742432
mp-605088,GaH19C8,-0.2275490034683333
mp-554951,GaH20C2S2NO14,-1.3385037903226251
mp-1183993,GaH3,0.6233815285350001
mp-24280,GaH36C12S6(IO2)3,-0.5280691649561717
mp-643759,GaH3NF3,-1.8400763546012493
mp-24091,GaH4NF4,-1.876468949662
mp-759288,GaH5(NF)2,-1.183499399024
mp-1201119,GaH6C2SeI3,-0.3419192286779804
mp-1224894,GaH6N2F3,-1.4481841720874993
mp-760697,GaH7(NF2)2,-1.5369372764185714
mp-1197790,GaH8N2OF5,-1.6089882493188237
mp-1190111,GaHCl2,-1.06222681066
mp-634326,GaHO2,-1.948003327155
mp-571190,GaHg2SbCl4,-1.04814260584875
mp-1183987,GaHg3,0.060704244999999935
mp-1238685,GaHg3AsSCl4,-0.9714167552102502
mp-1103091,GaHgCl4,-1.3371657921733338
mp-1178231,GaHgO2,-1.4798938956249996
mp-570738,GaI2,-0.4738516052777777
mp-30954,GaI3,-0.498405101875
mp-11388,GaIr,-0.3796046200000003