task_id,composition,formation_energy_per_atom
mp-1227388,Bi3Pd5,-0.18587880312500094
mp-1198800,Bi3Pd8,-0.2521418479545455
mp-560373,Bi3Pt3O11,-1.339041215367646
mp-581990,Bi3Rh,-0.13672261062500013
mp-504468,Bi3Ru3O11,-1.557600741691176
mp-1227319,Bi3Sb,-0.004843167499999801
mp-1227520,Bi3Sb(WO6)2,-1.955958359166666
mp-1227674,Bi3Sb5Pb4O21,-1.8169004177651515
mp-30304,Bi3SbO7,-1.7938633680681824
mp-1227418,Bi3SbPt2,-0.2701405241666669
mp-1048225,Bi3Se2ClO8,-1.2607463982462497
mp-542615,Bi3Se4,-0.3168343399107145
mp-29857,Bi3Se4Br,-0.4251406017968749
mp-1103410,Bi3Te2S,-0.2954153290104167
mp-1191023,Bi3Te4(ClO2)5,-1.529501097445454
mp-1227656,Bi3Te5Pb,-0.19811125055555576
mp-768923,Bi4(B2O5)3,-2.4162201835499992
mp-769052,Bi4(BO4)3,-1.9813518373684216
mp-1214289,Bi4(PO4)3,-2.073510645075188
mp-1227512,Bi4(SeS)3,-0.5425563337968754
mp-1227434,Bi4(TeS)3,-0.4872558442187504
mp-1227439,Bi4(TeSe)3,-0.3179260995781249
mp-1214182,Bi4Au,0.2580178719999999
mp-559422,Bi4Au2O9,-1.3140994155000003
mp-23356,Bi4B2O9,-2.099861467805555
mp-1196273,Bi4BPO10,-2.16702816937872
mp-23544,Bi4Br2O5,-1.5262774128409091
mp-651836,Bi4Cl2O5,-1.667789718357878
mp-30130,Bi4I2O5,-1.435929639204545
mp-1227536,Bi4I3Br,-0.3377436881249998
mp-1227510,Bi4IBr3,-0.4279464599999998
mp-1194918,Bi4Ir,-0.00683529177777776
mp-753832,Bi4O3F7,-2.319892465505714
mp-684589,Bi4O5,-1.3714242556944436
mp-761704,Bi4O5F2,-1.91909374283
mp-30303,Bi4O7,-1.5826398567045459
mp-1041273,Bi4O9,-1.1432378804807697
mp-1227555,Bi4PPd15,-0.20960478410714245
mp-1104254,Bi4Pb(ClO3)2,-1.5685503533861545
mp-1190436,Bi4Pb7Se13,-0.4770580821549485
mp-1227567,Bi4PbS7,-0.759627916536458
mp-30467,Bi4Rh,-0.13037507616666724
mp-541772,Bi4RuBr2,-0.3123045392857137
mp-541771,Bi4RuI2,-0.2082368092857132
mp-27607,Bi4Se3,-0.26375595654017864
mp-1106129,Bi4Te2Br2O9,-1.4968876894852945
mp-28229,Bi4Te3,-0.16321339857142853
mp-23005,Bi4Te7Pb,-0.26042139583333324
mp-673116,Bi5(PO4)6,-2.2127852159387755
mp-1228070,Bi5(PO5)3,-2.2678749605512407
mp-675345,Bi5(S2Cl)3,-0.8822130974396423
mp-1046291,Bi5(TeO6)3,-1.4271886939423082
mp-769030,Bi5BO10,-1.7080458374479175
mp-558302,Bi5BrO7,-1.59362556125
mp-554445,Bi5IO7,-1.562297123942308
mp-31289,Bi5NO10,-1.533987036086249
mp-760230,Bi5O4F7,-2.359077564895625
mp-760319,Bi5O7F,-1.7369636011492309
mp-1214374,Bi5P3O12F,-1.995241423696124
mp-556278,Bi6As9Se4S10(O4F13)5,-2.274513502783772
mp-768871,Bi6B10O21,-2.315844757916667
mp-27709,Bi6Br7,-0.4944112950961535
mp-554249,Bi6Cl3O7F,-1.7973951433658817
mp-582968,Bi6Cl7,-0.9821448572361536
mp-1204598,Bi6Mo2O15,-1.8631785141847832
mp-1200045,Bi6N5O26,-0.6783115891729732
mp-760370,Bi6O5F8,-2.34031401083
mp-767410,Bi6P2O15,-1.9545245753493776
mp-505697,Bi6P4PbO20,-2.27177187656682
mp-583499,Bi6PtBr10,-0.6316232276470589
mp-570417,Bi6PtCl10,-1.1421957259617648
mp-559631,Bi6Rh12O29,-1.3255686503457442
mp-1197501,Bi6Se3(BrO7)2,-1.5033046989312508
mp-1106025,Bi6Te10Pb,-0.2467437870588235
mp-691131,Bi6W4O21,-1.851670141491936
mp-759798,Bi7(O2F3)3,-2.3247946925322722
mp-676611,Bi7(S3Cl)3,-0.7212256079653948
mp-1214175,Bi7I2,-0.11478453055555544
mp-579370,Bi7Mo2(AsO8)3,-1.8456691702083328
mp-1190898,Bi7O5F11,-2.442866197797392
mp-29516,Bi7RhBr8,-0.5210293884374999
mp-1202541,Bi8(MoO7)3,-1.874604983554688
mp-676668,Bi8(P2O9)3,-1.6748931105270022
mp-570053,Bi8AsAuCl9,-0.8933072664126313
mp-1190719,Bi8Mo3,0.36681003227272735
mp-1104961,Bi8Pt5I3,-0.2875033924999997
mp-766286,Bi8Rh8O27,-1.4537097942732564
mp-573727,Bi8SbAuBr9,-0.458813768289474
mp-680214,Bi8Se7,-0.2878555022326389
mp-1190284,Bi8Se9,-0.3350859433731619
mp-1214397,Bi8Te7,-0.17809161577777802
mp-580062,Bi8Te9,-0.20448442764705904
mp-684015,Bi9AuBr9,-0.4403802335526315
mp-28149,Bi9I2,-0.07903133409090851
mp-680182,Bi9Ir2I3,-0.15529119107142872
mp-680173,Bi9Rh2Br3,-0.296713591666666
mp-541979,Bi9Rh2I3,-0.22251329535714248
mp-1042385,BiAs2O7,-1.4726207953749983
mp-1214200,BiAsO2,-0.7914171575000006
mp-27911,BiAsO4,-1.7800291687500005
mvc-5296,BiAsO5,-1.287048363749999
mp-554493,BiAsPbO5,-1.7369969339062497
mp-1227409,BiAsPd6,-0.22510831874999931
mp-570113,BiAu2,-0.04846077166666637
mp-541774,BiAuBr6,-0.4618311253125
mp-567414,BiAuCl6,-1.0877067977575
mp-997082,BiAuO2,-1.1263608068749995
mp-1006880,BiB,0.824370604166667
mp-1194824,BiB12H11O3,-0.15462838272481527
mp-558753,BiB2O4F,-2.6338482870237505
mp-768314,BiB2O5,-2.263729490260417
mp-1202291,BiB4(HO3)3,-2.3177739902221584
mp-1191193,BiB5,1.182169376527778
mp-1096844,BiB6,0.3414962121428573
mp-631539,BiBCl,1.4354983516911108
mp-31250,BiBO3,-2.304145596083334
mp-1147533,BiBOF4,-2.7335339446680957
mp-556601,BiBPbO4,-2.1077580380952368
mp-631511,BiBTe,1.141610402777778
mp-568758,BiBr,-0.4799439743749998
mp-1182391,BiBr7(N3F2)2,0.4852681992200003
mp-23072,BiBrO,-1.3860050270833326
mp-1197076,BiC2O5,-1.4454341426562491
mp-1229017,BiC3O10,-0.7588179943750006
mp-1200048,BiC3S3(NO)9,-0.29052487124429943
mp-1191992,BiC4S2Cl3O2,-0.2332912637837493
mp-1182466,BiC8N4Cl7,0.588245947883
mp-1178485,BiCO3,-1.6254768275000004
mp-22908,BiCl3,-1.37388673432
mp-28194,BiClF8,-1.7628267717780002
mp-22939,BiClO,-1.695003436503334
mp-23237,BiF3,-2.7977884315175
mvc-15980,BiF4,-2.335845222952
mp-27743,BiF5,-2.1471256076583334
mp-1199579,BiH14C4S8N5O,-0.5558749813281822
mp-1198262,BiH16C4N2Cl5,-0.6597821609457141
mp-1199850,BiH18C3S3(O2F)9,-1.6392483840732213
mp-601924,BiH24C6(I2N)3,-0.3983726054754996
mp-1200655,BiH25C8(SO2)6,-0.846362203459135
mp-984050,BiH3,0.6665516897850003
mp-707319,BiH3Ru3(CO)9,-0.8509257356343994
mp-1214376,BiH5(NO3)3,-0.15210171563833322
mp-568388,BiI,-0.2956570100000002
mp-1194377,BiI3O11,-0.6036781349166664
mp-950217,BiI4,-0.2629912640000001
mp-1214795,BiI5,-0.1818160424999998
mp-22987,BiIO,-1.216447810416667
mp-1191266,BiIO4,-1.2496615187499989
mp-647708,BiIr3(CO)9,-0.8944421140909085
mp-1103228,BiIrSe,-0.23461083619791745
mp-30012,BiKrF7,-1.5716538012033334
mp-1229231,BiMo30(PbS10)4,-1.0046942637000014
mp-1214235,BiMoO2,-0.9154506193749992
mp-1183479,BiMoO3,-1.48218603375
mp-631482,BiMoRh,0.5465774883333339
mvc-13729,BiN,0.4924959963100006
mp-1203637,BiN3O14,-0.4533907491466659
mp-1182025,BiNF4,-1.563984231606666
mp-557993,BiO2,-1.4735691741666663
mvc-11360,BiOF,-2.242573070813334
mp-753455,BiOF3,-2.1579560819640005
mp-616249,BiOs2(CO)6,-0.8830801236666663
mp-1237295,BiOs3(CO)9,-0.8001864688636341
mp-1103374,BiOsSe,0.0236438763020838
mp-581609,BiP(PbO2)4,-1.9165023294387749
mp-26594,BiP2O7,-2.3234867003035715
mp-1227709,BiP3(PbO4)3,-2.3762032358646623
mp-1193044,BiP3NO10,-2.1165187004205706
mp-559583,BiP3Pb4O13,-2.285233401794218
mp-24348,BiP4HO12,-2.4365297526217464
mp-1199164,BiP4NO12,-1.9959075501917465
mp-1214465,BiP5O14,-2.5055061594107144
mp-1043572,BiPO5,-1.9175419979846944
mp-556878,BiPPbO5,-2.240349264174108
mp-27133,BiPS4,-0.7357328551488092
mp-1227326,BiPb,0.05425810750000037
mp-1227492,BiPb2F7,-2.585010729833
mp-1214261,BiPb3Au,-0.03796354100000058
mp-1227459,BiPb4,0.035952059000000244
mp-1227444,BiPbBrO2,-1.4911417234999995
mp-23084,BiPbClO2,-1.684195854152
mp-35795,BiPbF5,-2.7012348165642863
mp-1227389,BiPbIO2,-1.386942447500001
mp-1227424,BiPbO2F,-1.9188543707379992
mp-1183442,BiPd2Au,-0.2104875562500004
mp-568476,BiPd2Pb,-0.28675792187500004
mp-30463,BiPd3,-0.2566411724999993
mp-1227313,BiPd6Pb,-0.2682021343749996
mp-1227421,BiPd6Se,-0.1626202666992187
mp-1095370,BiPdSe,-0.3572824136979165
mp-1066078,BiPt,-0.2841856174999995
mp-1183477,BiPt3,0.009438541250000656
mp-1214280,BiPtO14,0.8048056623437496
mp-1183469,BiPtO3,-0.7755905357500005
mp-680530,BiPtPb3,-0.13660174250000026
mp-1103607,BiPtSe,-0.3365753778645833
mp-1064554,BiRh,-0.16717064000000015
mp-1229239,BiRh7Pb2O15,-1.2716258118500001
mp-573119,BiRhO3,-1.3604829372500007
mp-1101765,BiRhSe,-0.39562139453125
mp-652854,BiRu2(CO)6,-0.8939907066666668
mp-753640,BiRu2O7,-1.3669050728750007
mp-1214383,BiRu3(CO)9,-0.7604610549999997
mp-1204558,BiRu5(CO)18,-0.9158246358928576
mp-28677,BiS,-0.3956513190312492
mp-971673,BiS2,-0.7013827193749999
mp-1183481,BiS3,-0.10487254179687522
mp-557484,BiS4N3Cl4,-0.6498066092858336
mp-1227290,BiSb,-0.003183929999999613
mp-631474,BiSb2Os,0.7855922975
mp-1237522,BiSb3(PO4)6,-2.3728299703046227
mp-1227565,BiSb3F20,-2.4902906593249994
mp-755382,BiSbO3,-1.6323723157500003
mp-23018,BiSbO4,-1.8569143525
mp-1043651,BiSbO5,-1.3194473480357145
mp-1227298,BiSbPd2,-0.3751465224999997
mp-1227441,BiSbPt,-0.3317968833333331
mp-1227296,BiSbPt2,-0.3389613449999995
mp-1227486,BiSbS3,-0.6938911209375007
mp-1227508,BiSbSe3,-0.3074482186562505
mp-1227463,BiSbTe2,-0.12368351083333393
mp-1227340,BiSbTe3,-0.1721029179999995
mp-1227556,BiSbWO6,-1.9521156680555565
mp-1095302,BiSe2,-0.2847802240624997
mp-610491,BiSeCl,-0.8416507989512502
mp-556378,BiSeClO3,-1.4727028563506248
mp-23224,BiTe,-0.1906880125000002
mp-35216,BiTe3,0.05538437625000015
mp-33723,BiTeBr,-0.5030302416666667
mp-28944,BiTeCl,-0.7921476677533335
mp-559332,BiTeIO3,-1.3553050185416673
mp-1227372,BiTeIr,-0.20877073083333408
mp-863374,BiTeO4,-1.6287244620833334
mp-1043603,BiTeO5,-1.1622688630357136
mp-29011,BiTePd,-0.3377636199999999
mp-29638,BiTePt,-0.33901417083333385
mp-1227426,BiTeRh,-0.35557626916666685
mp-1192987,BiW2(Br4O)2,-0.8707970301923075
mp-1193947,BiW2(Cl4O)2,-1.4724131679676915
mp-1214232,BiWO2,-0.5448314849999996
mp-1214148,BiWO4,-1.8623407783333323
mp-1044227,BiWO5,-1.6098205466071422
mp-1196930,BiXeF7,-1.7222162545366666
mp-555132,BiXeF9,-1.5690064809736364
mp-1183535,Br2Cl3,-0.24044491195600026
mp-28460,Br2O,-0.068709069583333
mp-28933,Br2O3,-0.20868276925000012
mp-36891,Br3N,1.8644572794050005
mp-554129,Br3N(O2F5)2,-1.141806822043333
mp-1066781,BrCl,-0.3450562641299999
mp-755831,BrClO,-0.2601983776144444
mp-23297,BrF3,-1.2539411996425
mp-27987,BrF5,-1.346424349325
mp-1182030,BrN,1.8525640063099997
mp-555071,BrN(OF2)2,-1.0689801937050007
mp-1198478,BrN3,0.4771689269650006
mp-1106142,BrN4,0.7688163745960012
mp-1102937,BrNO,-0.2563915287100003
mp-29526,BrNO3,-0.6179206917260004
mp-1181998,BrO,0.5778165143750003
mp-1182474,BrO2,0.18650256666666695
mp-36262,BrO2F,-0.6547814934224996
mp-1182120,BrO3,0.13943113906249982
mp-1182418,BrO4,0.12282853400000066
mp-22966,C(ClF)2,-1.3948283885299997
mp-1194028,C(N2O)2,0.6408629734614288
mp-1197051,C(NO)2,-0.08586538220200028
mp-560169,C(SN)2,-0.00134176232700014
mp-28131,C(Se2Br)2,0.13888907741071424
mp-647169,C10F3,-0.3119634592489754
mp-1202855,C10I3N4,0.935881490175295
mp-1214681,C10S(Cl4O)3,-0.527810714016635
mp-1588,C11F7,-0.7012510788655556
mp-1104073,C11N4,0.3051895582820009
mp-1203403,C121(SCl10)2,0.19450405071975527
mp-1214425,C12BrF9,-0.8434790218504546
mp-1214334,C12SF10,-0.92279936547663
mp-555582,C12SeF10,-0.8782274700214677
mp-646059,C13Cl3,0.08679258785229156
mp-1196461,C13F7,-0.698738569437333
mp-1214506,C15Br7,0.2908530157386364
mp-1214340,C15BrCl6,0.03706277303136445
mp-28709,C15S4,0.1585439257894719
mp-1196803,C16Cl,0.2813948107273531
mp-644802,C17F5,-0.3264794647022713
mp-1214339,C18BrF13,-0.8380546240771869
mp-29479,C2(OF2)3,-1.5078725862172733
mp-1214619,C20Cl18O,-0.2970288917930766
mp-646122,C20Cl3,0.16545286778130444
mp-647192,C28Cl5,0.1668472158696969
mp-1087519,C2BrNO,-0.15885819222599906
mp-683965,C2F,-0.6739770211374079
mp-652200,C2IO,-0.14821304531249968
mp-2718,C2N,0.36828665212333395
mp-1214250,C2N2O,-0.21667605470200044
mp-1182116,C2N2O5,-0.8144786920566666
mp-1078791,C2N3,0.5462649390720002
mp-1189989,C2NCl,1.441914169215
mp-1079864,C2NClO,-0.3585749918779996
mp-31306,C2O3F2,-1.7653535846257142
mp-558545,C2S(NCl)3,-0.2693433248313887
mp-555888,C2S(OF)4,-1.794509954438409
mp-1204119,C2S2N(O2F3)2,-1.4901000176763333
mp-1214223,C2S2NCl3,-0.3678078594106253
mp-1214225,C2S3I,-0.12718399453125073
mp-540807,C2S3N2,0.04575016972178503
mp-29477,C2S7Cl6,-0.5816590226998338
mp-30063,C2S9N2,-0.2736274645248095
mp-555625,C2SClO4F3,-1.6316852312175003
mp-1214118,C2SF6,-1.6414960062447213
mp-616463,C2SN2,0.34119254598549986
mp-559455,C2SNCl2F5,-1.3716342824011372
mp-1198997,C2SNOF,-0.8471238014804167
mp-6615,C2Se(SN)2,0.12225705800303542
mp-542699,C2Se3N2,0.3717321038512499
mp-639826,C2SeN2,0.5398780315792493
mp-1192990,C2SeNClO2,-0.33543158524767897
mp-557877,C2SeS2O7F6,-1.7193248361171527
mp-555948,C37F21,-0.7617984807541371
mp-1214273,C3Br2O,-0.13837713208333233
mp-1214194,C3Cl2O,-0.4960694181699997
mp-1214300,C3F2,-0.8131356598926668
mp-1195459,C3F5,-1.4870166065250006
mp-554739,C3ICl(OF3)2,-1.5525365953192305
mp-1214186,C3IF2,-0.5983253560216669
mp-1182130,C3IN,1.704661805274
mp-1014296,C3N,0.3075748240925016
mp-1188347,C3N2,0.2560148152980005
mp-971684,C3N4,0.07842202096142817
mp-1198447,C3N4O3,0.285838177798
mp-1182000,C3NCl,1.2221706586220002
mp-561848,C3O2,-0.5597712014999999
mp-1214145,C3OF2,-0.9890269366466669
mp-1182437,C3S2(OF2)2,-1.4476315087849998
mp-555503,C3S2ClO2F3,-1.2687542007913648
mp-1214211,C3S3O2,-0.5954610091796866
mp-1203337,C3S4,-0.07909147785714359
mp-30078,C3S8,-0.2528023739772729
mp-1199083,C4(N3O)3,0.6206146934268757
mp-1200162,C41F14,-0.4244454885983631
mp-1214607,C4Cl5,-0.28861829049166626
mp-1214748,C4N3,0.3439262108550015
mp-1214375,C4NCl2,-0.04452951859285597
mp-1214251,C4NCl3,-0.2327190541762496
mp-1001594,C4O3,-0.9086578345833326
mp-556192,C4O5F6,-1.858757036726
mp-1214257,C4SBr4,0.1824331117708332
mp-638445,C4SO2,-0.3719033493303578
mp-1214253,C4SeBr4,0.315831046267361
mp-560839,C4SeO2,-0.2124881505133932
mp-1195608,C50Cl11,0.07049164256786995
mp-1214283,C5Cl4,-0.22517156936555527
mp-1214262,C5F6,-1.283879736444545
mp-651723,C5N4,0.5581462685255553
mp-1182500,C5N4O3,-0.4095326995433328
mp-1197923,C61O2,0.2800164702976179
mp-645279,C68OF20,-0.33947586382078426
mp-1214333,C6BrF4,-0.7274909207736361
mp-1214171,C6F5,-0.960389596222728
mp-1203084,C6I3N4,1.5798529629215383
mp-1214405,C6IF7,-1.0382938356842857
mp-1214997,C6N7Cl3,-0.17888196081916638
mp-722472,C6S3(N3Cl)2,0.2549085823242645
mp-1214386,C7Cl5,-0.1864906512541668
mp-1214294,C7Cl8,-0.2957057894886674
mp-645316,C7F3,-0.5697817617320005
mp-1204260,C7I3N4,1.1455467653021432
mp-683911,C7SeNF5,-0.6296030480838398
mp-1214185,C8Cl3F2,-0.435414035935385
mp-1214363,C8Cl4O3,-0.6137831297860004
mp-1214421,C8Cl5,-0.1688380119269226
mp-1182588,C8I3N4,1.221304327532
mp-1196206,C9Cl,0.15273126917399887
mp-1199402,C9F5,-0.7656858932523825
mp-28765,CBr3F,-0.36834243448800025
mp-1214136,CBrF2,-1.2382864102824995
mp-27989,CBrN,0.3666231746233327
mp-1214295,CCl,-0.2029944147549996
mp-1214217,CCl2,-0.3655395045344447
mp-27727,CCl2O,-1.040650536317501
mp-1214207,CCl3,-0.5643815908825003
mp-23071,CCl3F,-1.003466941944
mp-1004532,CCl4,-0.6219970827330001
mp-28473,CClF3,-1.7901523651160005
mp-1214158,CF,-1.0679665953866664
mp-559432,CF2,-1.5859972631544441
mp-1167,CF4,-2.198873966702
mp-1197830,CI,0.9507070043750004
mp-1198908,CI(NO)3,0.1351535736387497
mp-556844,CIClF4,-1.494041719538571
mp-556845,CIF3,-1.484924933464
mp-676711,CIF5,-1.5355718449571432
mp-29409,CIF7,-1.8493985180088888
mp-30068,CIN,0.4261931562899998
mp-555996,CIN2(O2F)3,-1.1034493322753844
mp-1203490,CIN2O7,0.206102461385455
mp-27461,CN,0.5061059263099992
mp-1019086,CN2,0.3636890004966665
mp-1182145,CN2O,-0.09735375431499982
mp-1188937,CN3Cl,0.7265731986700004
mp-1190824,CN4Cl,0.5375002451616666
mp-1197543,CN6O,-0.05292964990999938
mp-571324,CNCl,-0.2906451986855553
mp-1105579,CNClO,0.7930963842150005
mp-1202752,CNClO4,0.3846299604442862
mp-1103367,CNO,-0.01254712579333391
mp-1214309,CNO2,-0.3419540696575005
mp-995183,CO,-0.7819546174999994
mp-20066,CO2,-1.7832827945833325
mp-995196,CO3,1.7346623718750005
mp-1147643,CS,1.0421337160937494
mp-1191171,CS(NO)2,-0.26439731042875064
mp-27814,CS14,-0.5552772097083344
mp-2232,CS2,-0.17306129729166742
mp-560879,CS2(NCl)3,-0.2655252076438883
mp-30054,CS2N,-0.04222912387625044
mp-1182525,CS2N2O,-0.19307806464750024
mp-23150,CS2NClO2,-0.8668152432164291
mp-555513,CS2NF5,-1.3712677978005559
mp-1199888,CS3,0.2069110414843749
mp-559900,CS3(Br2N)2,-0.1096746508197505
mp-1215137,CS30,0.5243996641733872
mp-29700,CS3N,-0.16190500266350086
mp-28390,CS3N4,0.08993592963031194
mp-558295,CS3N5Cl,0.07295397514024984
mp-555016,CS3NO2F3,-1.3089694856887504
mp-555309,CS4N2(OF)3,-1.2073138143907691
mp-1200583,CS4N4ClO2,-0.288697191065
mp-1215005,CS5,0.1754655495312504
mp-558959,CS5N5O3F,-0.6819201347268338
mp-558648,CSCl(OF)3,-1.8064171328769447
mp-554711,CSCl2,-0.3769734985831255
mp-1214102,CSN2,-0.00537902064312501
mp-648193,CSN2OF2,-1.060482603802737
mp-1214236,CSN3,0.15861996900950004
mp-559889,CSNCl,-0.11851251742562495
mp-1214114,CSNCl2F5,-1.3854425142662496
mp-556223,CSNF5,-1.3838305898303127
mp-559873,CSNO2F3,-1.5587994864078116
mp-554110,CSNO3,-1.1261241548237504
mp-672266,CSNOF5,-1.625327659154722
mp-634755,CSO,-0.9848413146875004
mp-647549,CSe(ClF)3,-1.299928490946094
mp-1071625,CSe2,0.6722794046874997
mp-555329,CSe2S2N2(OF)3,-1.1017873787417307
mp-638137,CSeN,0.4488691913420837
mp-7878,Ca(AgGe)2,-0.3029234294999995
mp-1047036,Ca(AgO2)2,-1.3590054824999993
mp-1196837,Ca(Al10Cr)2,-0.12935565445652147
mp-10877,Ca(Al2Cu)4,-0.26023736673076914
mp-676724,Ca(Al3Te5)2,-0.3799030839705884
mp-17871,Ca(Al4Co)2,-0.4202631695454551
mp-18142,Ca(Al5Cr)2,-0.1799682794230763
mp-570703,Ca(AlCl4)2,-2.2109239185072727
mp-9690,Ca(AlGa)2,-0.3342930695
mp-3862,Ca(AlGe)2,-0.39111319549999946
mp-1198688,Ca(AlH4)2,-0.26805626263272714
mp-14422,Ca(AlS2)2,-1.7922699228571437
mp-36988,Ca(AlSe2)2,-1.2035037709821421
mp-7704,Ca(AlSi)2,-0.29942330550000024
mp-1147766,Ca(AlSn)2,-0.19906627349999936
mp-30175,Ca(AlZn)2,-0.2908065354999998
mp-16044,Ca(As2Rh3)2,-0.6549559397727271
mp-4555,Ca(AsO3)2,-2.2467772416666683
mp-5166,Ca(AsPd)2,-0.7422158695000007
mp-5610,Ca(AsRu)2,-0.6578646395000007
mp-28153,Ca(AuF6)2,-1.8076175461186668
mp-2898,Ca(AuO2)2,-1.4763078210714289
mp-1204348,Ca(B2O5)3,-1.7087505328977268
mp-1227448,Ca(B2Pt3)2,-0.3987809649242422
mp-558358,Ca(B3O5)2,-2.9860400151470583
mp-10289,Ca(BC)2,-0.331872314666667
mp-1227328,Ca(BC3)2,-0.1555983514814806
mp-1196257,Ca(BH)12,-0.4027199038375994
mp-1078932,Ca(BH)2,-0.30652491961466666
mp-1190619,Ca(BH4)2,-0.4615026858903029
mp-14445,Ca(BIr)2,-0.6696327591666673
mp-8056,Ca(BO2)2,-3.1438689733333334
mp-1200657,Ca(BO2)3,-2.8532480610000013
mp-1105926,Ca(BO3)2,-2.1270206331481467
mp-1193777,Ca(BO3)3,-1.7324773683653858
mp-1181911,Ca(BO4)2,-1.444188830984848
mp-1204932,Ca(BO4)3,-1.3291792070312507
mp-1192983,Ca(BO5)2,-1.396914992564103
mp-8431,Ca(BRh)2,-0.6031082871666669
mp-30958,Ca(BS2)2,-1.2639920392261916
mp-1018630,Ca(BeAs)2,-0.6107545354999999
mp-31209,Ca(BeGe)2,-0.2586279944999994
mp-11918,Ca(BeN)2,-1.2572429614519998
mp-1017548,Ca(BeP)2,-0.729645182357143
mp-675592,Ca(Bi2O3)2,-1.7322971180303033
mp-1227488,Ca(BiAu3)2,-0.30166855805555554
mp-558751,Ca(BiO2)2,-2.1522815778571416
mp-1046237,Ca(BiO2)4,-1.7502543359615377
mp-1045327,Ca(BiO3)2,-1.7144066272222231
mp-29960,Ca(C2N3)2,-0.2739374233436355
mp-558543,Ca(CO2)2,-2.2676104189285717
mp-7067,Ca(CdAs)2,-0.5947023415
mp-1078064,Ca(CdAu2)2,-0.4563093453571427
mp-9570,Ca(CdP)2,-0.5684282743571429
mp-7430,Ca(CdSb)2,-0.4632056414999998
mp-38870,Ca(Ce2Se3)4,-1.8497269178869056
mp-33560,Ca(CeS2)2,-2.401910707678572
mp-675740,Ca(CeTe2)2,-1.4299349996428572
mp-1214234,Ca(ClO)2,-1.5617750378039996
mp-561366,Ca(ClO2)2,-1.4123657527171427
mp-768870,Ca(ClO3)2,-1.3410721529466672
mp-1043610,Ca(Co2O3)2,-1.6204462418181818
mp-569298,Ca(CoAs)2,-0.6062981114999999
mp-4259,Ca(CoGe)2,-0.4713202055000004
mvc-15523,Ca(CoN)2,-0.0931001384520002
mp-510651,Ca(CoO2)2,-1.9214994053571428
mvc-11660,Ca(CoO2)4,-1.6199108313461532
mp-3210,Ca(CoP)2,-0.8510595203571427
mvc-12728,Ca(CoS2)2,-1.0455451333928576
mvc-14448,Ca(CoS2)4,-0.9508659415384622
mp-1070152,Ca(CoSi)2,-0.6167447395000003
mvc-2137,Ca(CrN)2,-0.2617047084519996
mp-1045417,Ca(CrS2)2,-1.4355502726785718
mvc-11417,Ca(CrS2)4,-1.2540757615384626
mp-28006,Ca(Cu2As)2,-0.3451593296428572
mp-1046807,Ca(Cu2O3)2,-1.2944965222727272
mp-22295,Ca(Cu2P)2,-0.4473075309693876
mp-1147677,Ca(Cu3O4)2,-1.2774944578333325
mp-1183490,Ca(CuAs)2,-0.4798072134999998
mp-4441,Ca(CuGe)2,-0.3762137394999997
mvc-13426,Ca(CuN)2,0.09715759154800097