task_id,composition,formation_energy_per_atom
mp-1202388,H7C2N4ClO5,-0.7117996619405258
mp-1237354,H7C2N7O6,-0.5587704212272726
mp-1238949,H7C2SBrN4,-0.4846654107615005
mp-1197067,H7C2SNO,-0.4282572518152084
mp-733610,H7C3N3O5,-1.0960549005544438
mp-761870,H7C3N6Cl,-0.5164216134782352
mp-735063,H7CSN3O4,-1.0790990587682812
mp-1200356,H7CSeN3O4,-0.8428739067077347
mp-625151,H7ClO3,-1.3223565552136358
mp-558867,H7ClO7,-1.1321660166566667
mp-721084,H7IN2,-0.6015175832599994
mp-1198625,H7N2F,-0.9257616216290004
mp-28123,H7NF4,-1.5656552785399995
mp-504422,H7NO6,-1.2580557901942857
mp-696717,H7O4,-0.5862961900309093
mp-703297,H7S(NO2)2,-1.1961859463687503
mp-849800,H7SIO10,-1.310049516415921
mp-24354,H7Se2NO6,-1.1379349757754689
mp-601614,H7WC7NO5,-0.5606735707247608
mp-676050,H8(NO2)3,-0.4158279449176477
mp-740707,H8AuC2S2BrN4,-0.4872072660613888
mp-1200739,H8AuC2S2N4Cl,-0.5395879345758338
mp-721059,H8AuC2S2N4ClO4,-0.5578312494256821
mp-734124,H8C2(N2O)3,-0.6321507479994736
mp-568157,H8C2BrN,-0.4643506344866661
mp-568713,H8C2I3N,-0.3494725133099997
mp-644101,H8C2IN,-0.3921472190699991
mp-1237806,H8C2N6O7,-0.7194184097604339
mp-570388,H8C2NCl,-0.5417736118416663
mp-707928,H8C2S3(NO3)2,-0.9302619476622622
mp-1196575,H8C2SBrNO,-0.49127720252875
mp-707239,H8C2SeS2(BrN2)2,-0.4205003001420395
mp-707208,H8C2SeS2(N2Cl)2,-0.5691965511430922
mp-542782,H8C3(NO)3,-0.8074433157999996
mp-708965,H8C3(NO)4,-0.3957777447226318
mp-559139,H8C3N2O,-0.5158730765157143
mp-555128,H8C3O2,-0.558766313477692
mp-555848,H8C3S2,-0.3143716492949999
mp-23777,H8C3SN(OF)3,-1.0808644350775003
mp-600371,H8C3SN2,-0.3385600548416069
mp-600366,H8C3SeN2,-0.2624080666831249
mp-1195106,H8C5,-0.23437794443923
mp-1202123,H8CIN5O3,-0.5938009218533336
mp-560730,H8CN2(ClO5)2,-0.6698845577821736
mp-28551,H8CN6,-0.22326163813266647
mp-690771,H8CS(NO)4,-0.9685135006273612
mp-625819,H8N2O,-0.7425302102245452
mp-28124,H8NF5,-1.6135467040921423
mp-643735,H8Pd(NCl3)2,-0.8890778625458822
mp-973694,H8PdC2NCl3,-0.5905707969079993
mp-24227,H8Pt(NCl3)2,-0.9165326578400004
mp-567511,H8PtCN8,-0.19663408481944344
mp-23858,H8PtN2(ClO)2,-0.9234039355159992
mp-625208,H8PtO6,-1.2521414334306664
mp-600228,H8RuC5N(ClO)3,-0.788666676600952
mp-1212914,H8RuN3Cl5O,-0.9267121207583341
mp-24468,H8S(NO2)2,-1.2231908950188342
mp-733614,H8S(NO3)2,-1.1536902044283832
mp-706653,H8S2N2O5,-1.1798249401820584
mp-28143,H8S5N2,-0.6144713581021667
mp-23745,H8Se(NO2)2,-0.9649834658209168
mp-722865,H8Se2N2O5,-0.9961814333622059
mp-697283,H8W(S2N)2,-0.7239536266646667
mp-633143,H8W3Se(NO6)2,-1.5177075356659129
mp-1224602,H9Au(ClO)4,-1.2015216353122224
mp-625661,H9BrO4,-1.2591992208985718
mp-1199386,H9C2(N3O2)3,-0.45386778226923
mp-583606,H9C2(NO)3,-0.5236780656452934
mp-707917,H9C2N11O8,-0.5701112460419997
mp-1197214,H9C2N5(ClO4)2,-0.6367057764807691
mp-734137,H9C2N7O6,-0.7316129342391662
mp-1212542,H9C3IN6O,-0.5665766622180002
mp-556151,H9C3N3O2,-0.6757410502041172
mp-1238599,H9C3N6ClO5,-0.6437375674008337
mp-559836,H9C3S2BrN2,-0.17292410068911662
mp-1238409,H9C3SN4O3,-0.784476171558125
mp-1200281,H9C3SeN3,-0.1117000493477347
mp-558541,H9C3SeSN2Cl,-0.1558784905591909
mp-23668,H9C4NO4,-0.8481366533311111
mp-568817,H9C4Se2N,-0.12117527075921865
mp-558863,H9C5NO5,-0.7692615632479999
mp-1195829,H9C6N10ClO5,-0.5148527359158058
mp-1213393,H9C6N11,-0.36355517004846094