task_id,composition,formation_energy_per_atom
mp-603,Be2Ag,0.029227253333333536
mp-1093938,Be2AgPt,1.7737603825000003
mp-720433,Be2As(HO)9,-1.778078714468095
mp-1432,Be2B,0.043189351111111066
mp-1227442,Be2BH3O5,-2.383379874434243
mp-23883,Be2BHO4,-2.751519001598333
mp-554023,Be2BO3F,-3.1935622066580955
mp-1182244,Be2BO4,-2.7028206207738097
mp-1079124,Be2BO5,-2.119179720364583
mp-1569,Be2C,-0.2302310695833339
mp-631489,Be2CdP,0.7145678207142856
mp-1097528,Be2CdPt,1.6750215362499996
mp-1227342,Be2Co,-0.006172183333333693
mp-1238119,Be2Co(NF7)2,-1.7889812345484208
mp-1097104,Be2CoAu,2.090022915
mp-1095785,Be2CoCu,2.3797385575
mp-1238037,Be2CoH6(NF4)2,-1.085358189263158
mp-867274,Be2CoIr,-0.4504391000000005
mp-867271,Be2CoNi,-0.4108970925
mp-1097445,Be2CoOs,3.3321497087500003
mp-1096569,Be2CoPd,2.3146827
mp-867270,Be2CoPt,-0.5876930475000002
mp-1093807,Be2CoRh,2.680475925
mp-1097143,Be2CoRu,3.048833556249998
mp-1227277,Be2CoSi,-0.2078106249999996
mp-30438,Be2Cr,-0.22411173916666627
mp-1095931,Be2CrIr,2.8655964150000006
mp-2031,Be2Cu,-0.13646818999999985
mp-867273,Be2CuIr,-0.3921467999999999
mp-1097651,Be2CuNi,2.242892175
mp-1096063,Be2CuOs,2.89852207875
mp-865869,Be2CuPt,-0.4627185199999992
mp-865308,Be2CuRh,-0.4182226275000005
mp-865147,Be2CuRu,-0.2434765112499999
mp-2225,Be2Fe,-0.2757418658333333
mp-1096327,Be2FeRu,3.0842843212500006
mp-768285,Be2GeO4,-2.709481998333333
mp-1097628,Be2IrAu,2.1477244025
mp-1096647,Be2IrOs,3.62255215625
mp-865003,Be2IrPd,-0.5923652675
mp-867280,Be2IrPt,-0.7048941499999994
mp-1097122,Be2IrRh,2.8637190050000005
mp-1183419,Be2IrRu,-0.37852085124999935
mp-1677,Be2Mo,-0.3135076241666669
mp-1195806,Be2NCl5,-0.7152557298350001
mp-2028,Be2Nb,-0.1817840283333337
mp-11272,Be2Nb3,-0.12140196399999895
mp-1198491,Be2NiH20N2(O3F4)2,-1.7094764133123066
mp-865229,Be2NiIr,-0.5694216150000004
mp-866224,Be2NiPt,-0.6395730374999999
mp-864895,Be2NiRh,-0.5883970349999998
mp-1183421,Be2NiRu,-0.3435448212500001
mp-1096580,Be2OsAu,2.58511719125
mp-779108,Be2P2O7,-2.836268064025974
mp-1198968,Be2P2PbO8,-2.8042162934065926
mp-1197425,Be2P3NO10,-2.227713059456785
mp-705909,Be2PH5O7,-2.0672234047661906
mp-1093954,Be2PdAu,1.5848008475
mp-864961,Be2PdPt,-0.6833616449999997
mp-866115,Be2PdRh,-0.6491513925000003
mp-1097702,Be2PdRu,2.57248018875
mp-1095792,Be2PtAu,1.5979577375000005
mp-862600,Be2PtRh,-0.7688671975000005
mp-11275,Be2Re,-0.3820067175000001
mp-631496,Be2ReCl,0.9709964348100008
mp-866024,Be2RhAu,-0.4121328200000001
mp-1103315,Be2Ru,-0.3263820874999996
mp-867307,Be2RuAu,-0.25470933375000016
mp-865021,Be2RuPt,-0.5154225062500002
mp-1097267,Be2RuRh,2.94717522625
mp-1009829,Be2Si,0.2392079900000006
mp-1183429,Be2Si2O5,-1.9277339062500007
mp-3347,Be2SiO4,-3.191029914761905
mp-1096641,Be2TcPt,2.7518787375
mp-30096,Be2Te7Cl6,-0.9114711286373336
mp-1238504,Be2Tl2Co(O3F4)2,-1.6829780008957895
mp-1237444,Be2Tl2Zn(O3F4)2,-1.8269326927378944
mp-27187,Be2TlF5,-3.2163055348062497
mp-11281,Be2V,-0.2145518491666666
mp-1009830,Be2Zn,0.287178215
mp-1097557,Be2ZnPt,1.7295798012500003
mp-1214242,Be3Ag4P3BrO12,-2.223634014192547
mp-6030,Be3Al2(SiO3)6,-3.2837297816379314
mp-1214221,Be3Al2Si6HO18,-3.103351616370668
mp-1195857,Be3Al2Si6O19,-3.098808830291667
mp-24570,Be3As2(H2O5)2,-2.053999175104211
mp-1202034,Be3As2H10(NO5)2,-1.65825949309111
mp-1214690,Be3B3P6N3O25,-1.9648165128436788
mp-1227633,Be3Bi(RhO2)9,-1.5318637755645168
mp-1214323,Be3Cd2(NF6)2,-1.953092741791579
mp-17493,Be3Cd4Si3SO12,-2.610895925611413
mp-16793,Be3Cd4Si3SeO12,-2.5797997195040767
mp-17167,Be3Cd4Si3TeO12,-2.561942190434784
mp-1183425,Be3Co,-0.25356590999999984
mp-1214936,Be3Co2(NF6)2,-2.0312928242915795
mp-1047903,Be3Cr2(SiO4)3,-2.8532390296249988
mp-1227357,Be3Cu,-0.10495543291666642
mp-1041184,Be3Cu2(SiO4)3,-2.4309419481250005
mp-983590,Be3Fe,-0.20107386125000026
mp-1047825,Be3Fe2(SiO4)3,-2.7543201280000007
mp-627398,Be3Fe4Si3SO12,-2.654506918002717
mp-704536,Be3Fe4Si3SeO12,-2.615327898199728
mp-1134064,Be3Fe4Si3TeO12,-2.586799236304348
mp-1183424,Be3Ge,0.38121582
mp-862714,Be3Ir,-0.4599088687499995
mp-11273,Be3Nb,-0.22552753958333344
mp-984315,Be3Ni,-0.2800958837500005
mp-567841,Be3P2,-0.2316897658571428
mp-24674,Be3P2(H2O5)2,-2.4681842055929324
mp-1183408,Be3Pd,-0.31300016374999995
mp-864894,Be3Rh,-0.4402626275000001
mp-865562,Be3Ru,-0.32677905500000026
mp-1183434,Be3S,0.2616937339843748
mp-1183407,Be3Si,0.2723153412500001
mp-1041173,Be3Si3(AgO6)2,-2.3293279941250007
mp-1041202,Be3Si3(BiO6)2,-2.75377141125
mp-1047811,Be3Si3(MoO6)2,-2.789020670499999
mp-1048097,Be3Si3(NiO6)2,-2.471939205875
mp-1041250,Be3Si3(SbO6)2,-2.7063884986250004
mp-1041318,Be3Si3(SnO6)2,-2.7358948841250013
mp-1047959,Be3Si3(WO6)2,-2.673609778375
mp-1214189,Be3Si3C4SO12,-1.3216338899592397
mp-1202186,Be3SiO6,-2.6622282672500006
mp-977552,Be3Tc,-0.26946371625000065
mp-1214315,Be3Tl2Cd2F12,-2.92843243180421
mp-1214371,Be3Tl2Co2F12,-2.7965885699621054
mp-1214337,Be3Tl2Ni2F12,-2.812714951014737
mp-1214313,Be3Tl2Zn2F12,-2.9663239973305267
mp-1047935,Be3V2(SiO4)3,-2.913217624375001
mp-1205157,Be3Zn2(NF6)2,-1.9986074198178947
mp-6856,Be3Zn4Si3SO12,-2.707477230394022
mp-1227338,Be3ZnO4,-2.699065726875
mp-1227597,Be46Ir7,-0.19875952283018866
mp-1227691,Be46Os7,-0.07338716594339646
mp-1227672,Be46Rh7,-0.1684780533962261
mp-1227622,Be46Ru7,-0.09198466518867844
mp-1227276,Be4AlCr,-0.09659424166666676
mp-1227275,Be4AlCu,-0.06447227166666697
mp-1227272,Be4AlFe,-0.2359972516666673
mp-1227279,Be4AlNi,-0.2924937949999998
mp-27757,Be4B,-0.01262210633333325
mp-1227634,Be4B25,0.21050121649425324
mp-1227289,Be4CoGe,-0.08159740250000051
mp-1227375,Be4CrMo,-0.24682015416666656
mp-1227292,Be4CuGe,0.1766062375000003
mp-1227281,Be4CuSi,0.11506417000000012
mp-1227297,Be4FeGe,-0.07412373416666658
mp-1227318,Be4InCu,0.17561768611111125
mp-30142,Be4N6O19,-1.4634695833803442
mp-1227348,Be4NbMo,-0.24854299999999915
mp-1227295,Be4NiGe,-0.020893777499999544
mp-707304,Be4Si2H2O9,-2.8783268687347072
mp-1194006,Be4Si2O9,-2.748538506416666
mp-1227282,Be4SiNi,-0.10666545666666732
mp-27608,Be4TeO7,-2.586263980729168
mp-1227449,Be5(Al2Fe)2,-0.15388514318181798
mp-1220,Be5Au,-0.08264477416666692
mp-1071690,Be5Co,-0.1882146641666663
mp-1025010,Be5Fe,-0.08941719583333334
mp-650,Be5Pd,-0.3116986308333332
mp-1072399,Be5Pt,-0.4603399358333332
mp-1227528,Be6Al4Si12O37,-3.1896926879025425
mp-1229295,Be8P8H34N8O33,-1.867191715829812
mp-1227382,Be8Ru,-0.11093920777777792
mp-984719,BeAg3,0.2214972912500004
mp-1183417,BeAgO3,-0.7929537197499996
mp-15919,BeAgPO4,-2.394347170187076
mp-3081,BeAl2O4,-3.367522660357142
mp-1183412,BeAl3,0.16218381875
mp-560974,BeAl6O10,-3.4103015575
mp-1096166,BeAlCo2,2.59212478375
mp-23719,BeAlH5,-0.11709925972857095
mp-865966,BeAlIr2,-0.7564454362499999
mp-1093684,BeAlPd2,1.5424426412500003
mp-1097646,BeAlPt2,1.6222641212500006
mp-862287,BeAlRh2,-0.8689125412500003
mp-759686,BeAlSiHO5,-2.98030194693
mp-1227412,BeAlSiN3,-1.4376635053566662
mp-1196267,BeAlSiO5,-2.9652396420312512
mp-1194099,BeAsO5,-1.277922355892857
mp-1183409,BeAsRu2,-0.2385251024999997
mp-30365,BeAu,-0.1265811124999998
mp-12761,BeAu2,-0.1344249116666667
mp-983539,BeAu3,0.07975372624999988
mp-1183414,BeAuO3,-0.6406408097499992
mp-1009823,BeB2,0.1203297272222225
mp-1095722,BeBIr2,2.973027784583333
mp-1183422,BeBO3,-1.0159762310833331
mp-1183403,BeBiO3,-1.64490222075
mp-631507,BeBiOs2,0.9675748325000004
mp-30139,BeBr2,-1.04669433
mp-1001023,BeC2,0.8517230041666662
mp-1189451,BeCN2,-0.5759048727524991
mp-1183418,BeCdO3,-1.2864767007500006
mp-1093854,BeCdPt2,1.7251881175000006
mp-23267,BeCl2,-1.8224810671733327
mp-1178530,BeClO,-1.998929761503332
mp-2773,BeCo,-0.3100879624999999
mp-1096558,BeCo2B,2.7264712995833333
mp-862706,BeCo2Ge,-0.3034579274999993
mp-1095847,BeCo2P,2.3598003832142864
mp-865901,BeCo2Si,-0.5921911012500001
mp-1193887,BeCr2O4,-2.595159185357143
mp-1183401,BeCr3,0.1266101787500009
mp-1183416,BeCrFe2,-0.10966003125000068
mp-1097173,BeCrIr2,3.0835270662500003
mp-770887,BeCrO4,-2.0820390279166667
mp-1096122,BeCrOs2,3.828477868750001
mp-1097531,BeCrPt2,2.19981517125
mp-867837,BeCrRu2,-0.1401929212500006
mp-631505,BeCuBr,0.7480594516666669
mp-1183426,BeCuO3,-0.8362390237499995
mp-1182494,BeCuO5F4,-1.1836439673645451
mp-1093749,BeCuPd2,2.00520051375
mp-561543,BeF2,-3.5702571277377766
mp-1095998,BeFe2P,2.3670806257142853
mp-1096665,BeFe2W,3.605057818749999
mp-1227549,BeFe3,-0.05025617625000045
mp-1096444,BeFeCo2,2.9436856862500003
mp-1093628,BeFePt2,2.18554586375
mp-867840,BeFeRh2,-0.3221482087500007
mp-1097372,BeFeRu2,3.454890463749998
mp-1183428,BeGa3,0.27796239125
mp-984721,BeGaCo2,-0.27604131874999993
mp-867116,BeGaIr2,-0.4741419887499996
mp-1097544,BeGaPd2,1.4490122262499998
mp-1093926,BeGaPt2,1.58183590875
mp-631450,BeGe2Te,0.6202966112500001
mp-1183427,BeGe3,0.5123188150000004
mp-1009088,BeGeAs2,-0.17294244375000026
mp-631541,BeGeB,0.7575715777777775
mp-1093946,BeGeIr2,2.72368433
mp-1019550,BeGeN2,-0.8132386743149995
mp-1183415,BeGeO3,-1.2025230947499999
mp-1013527,BeGeP2,-0.2691131785714287
mp-1096134,BeGePt2,1.70425219
mp-1095723,BeGeRh2,2.283975025
mp-862713,BeGeRu2,-0.27643232750000024
mp-1183400,BeH,0.42395883319
mp-1204117,BeH12C4(SBr)2,-0.4605584960269049
mp-723109,BeH14(I2O9)2,-1.2577339939372976
mp-768203,BeH2,-0.1478933229688886
mp-1199791,BeH24C8S4(ClO2)2,-0.6344397672011625
mp-757836,BeH2SeO4,-1.7710018629167186
mp-1201870,BeH48C20I6(N2O)4,-0.4251440972735632
mp-696961,BeH4NF3,-1.954632621436667
mp-707175,BeH6(NF2)2,-1.6691070583646148
mp-23776,BeH8(ClO2)2,-1.5514188045319997
mp-734194,BeH8(IO5)2,-1.3626213044742856
mp-24614,BeH8(NF2)2,-1.6583984586486664
mp-706913,BeH8(NO5)2,-1.4008406522009518
mp-23996,BeH8SO8,-1.7540135101679164
mp-708961,BeH8SeO8,-1.5443537951418758
mp-1183413,BeHgO3,-0.9072657317500002
mp-570886,BeI2,-0.5779373249999997
mp-984776,BeIn3,0.4465077362499996
mp-631497,BeInBi,0.7224996022222221
mp-1183436,BeInO3,-1.5421058784166668
mp-1097595,BeInPt2,1.5953025029166668
mp-631467,BeInSi2,0.7022592729166659
mp-11271,BeMo3,0.01633166875000036
mp-1097570,BeMoRu2,3.51784814875
mp-1214301,BeNF3,-1.6653065896899992
mp-1095736,BeNbCo2,3.04357856125
mp-1095938,BeNbOs2,3.802326516250001
mp-867828,BeNbRu2,-0.2667303687500002
mp-1033,BeNi,-0.4597720125000002
mp-1183432,BeNi3,-0.1535818687500008
mp-1214291,BeO2,-1.454306506111111
mp-1183431,BeOsO3,-0.7618615727500001
mp-27148,BeP2,-0.32151894059523833
mp-695815,BeP2(HO)4,-1.6613688257968833
mp-697592,BePH3O5,-2.1877441649252845
mp-24473,BePH4NO4,-1.9196129326366247
mp-1192687,BePNO4,-1.5042489856461227
mp-760410,BePO4,-2.556083603690476
mp-1097675,BePRu2,2.7614278457142856
mp-1183495,BePb3,0.5343751562500003
mp-1182129,BePbF4,-3.11853870871
mp-1183499,BePbO3,-1.4071680337500003
mp-11274,BePd,-0.5760002725
mp-1183447,BePdO3,-0.8635508217500003
mp-1097101,BePt2Au,2.13046934125
mp-1183451,BePtO3,-0.7325829497499996
mp-631537,BeReB,0.8555614702777786
mp-1183476,BeReO3,-1.0230904312500002
mp-11276,BeRh,-0.6153724074999998
mp-862622,BeRu2W,-0.2021721087500019
mp-1183473,BeRu3,0.10066105749999996
mp-5046,BeSO4,-2.4297438573437504
mp-1182463,BeSO8,-0.6935449059062501
mp-631578,BeSbAs2,0.6310635650000003
mp-1183443,BeSbO3,-1.5404384607500006
mp-1214285,BeSi(AgO2)2,-2.0781468387499995
mp-1009087,BeSiAs2,-0.20976773124999948
mp-865904,BeSiIr2,-0.6474359787499999
mp-7913,BeSiN2,-1.411842861814999
mp-865792,BeSiNi2,-0.5236166437500005
mp-1183445,BeSiO3,-1.9753809177500004
mp-1009085,BeSiP2,-0.37426652607142863
mp-867767,BeSiRh2,-0.81512451625
mp-1093711,BeSiTc2,3.2188736237499995
mp-1009084,BeSnAs2,-0.17398009624999933
mp-1009086,BeSnP2,-0.2190354985714276
mp-3733,BeTl2F4,-2.7215140367514294
mp-866288,BeVCo2,-0.28293405375
mp-867304,BeVFe2,-0.2305710287500009
mp-1093577,BeVIr2,2.79687739125
mp-1183449,BeVO3,-1.7139086717500007
mp-867275,BeVOs2,-0.2505265337499996
mp-1097545,BeVRh2,2.53706904125
mp-867874,BeVRu2,-0.3500508912500013
mp-631535,BeW2Cl,0.8724419854349996
mp-1194397,BeZn13,0.21846430000000008
mp-1227367,BeZn3O4,-2.084673664375
mp-1095795,BeZnIr2,2.8523174675000007
mp-550433,BeZnO2,-2.407445994375
mp-984552,BeZnO3,-1.2063481487500003
mp-1096662,BeZnPt2,1.7578065175000002
mp-1227316,BeZnS2,-1.2078415270312504
mp-556548,Bi(BO2)3,-2.59168424475
mp-1193340,Bi(CO2)3,-1.087064901541667
mp-1182384,Bi(CO3)3,-0.7933881150000002
mp-31259,Bi(IO3)3,-1.0209702358653838
mp-679989,Bi(Mo2Cl5)3,-1.3352184794954545
mp-1104502,Bi(Mo3S4)2,-0.9685828791666676
mp-27135,Bi(PO3)3,-2.5052280634752764
mp-504355,Bi(PO3)4,-2.4021736210924383
mp-1104660,Bi(PdO2)2,-1.1590643385714279
mp-1178522,Bi(SO4)2,-1.8184306497159093
mp-1227403,Bi(SbTe2)3,-0.1501016309999997
mp-29127,Bi(TeBr2)2,-0.4874483914285714
mp-569822,Bi(W2Cl5)3,-1.1732058626772726
mp-1229330,Bi(W3O10)6,-1.8476656459493663
mp-1198859,Bi(WBr3)3,-0.5722186082692301
mp-1041572,Bi(WO4)2,-1.9045986786363631
mp-566792,Bi10(MoO8)3,-1.8530768878378392
mp-758225,Bi10(Pb2O7)3,-1.57857044179054
mp-1104558,Bi10Mo3,0.3487392992307686
mp-1227641,Bi10Te2Br4O17,-1.5278679915530302
mp-1227670,Bi10Te2I4O17,-1.4700060812499995
mp-1228808,Bi11(Se4Cl3)3,-0.766019739217656
mp-758223,Bi11PO20,-1.6958722960044632
mp-757916,Bi12AsO20,-1.6521879824242427
mp-769060,Bi12BO20,-1.6875607958080812
mp-1214265,Bi12Br5O16,-1.5043694075757574
mp-766035,Bi12Cl5O16,-1.642271264433333
mp-685339,Bi12Ir12O41,-1.4500559262756407
mp-1214246,Bi12IrO20,-1.5244879119696972
mp-766268,Bi12O16F5,-1.8553116733621209
mp-1227872,Bi12Pb2Cl6O17,-1.6258195994813511
mp-1214432,Bi12Pb4O21,-1.5227595607094593
mp-757785,Bi12PbO19,-1.6134910410546874
mp-667342,Bi12PbO20,-1.6066251565151513
mp-582988,Bi12PtCl12,-0.9076932575648003
mp-645514,Bi12Rh3Br2,-0.2517632502941183
mp-1195274,Bi12Rh3Cl2,-0.3437912259717656
mp-1214239,Bi12RuO20,-1.5836094136363634
mp-1214312,Bi12SbO20,-1.6359780621212119
mp-1228534,Bi13Mo6(AsO14)3,-1.8749812940234367
mp-32597,Bi13O20,-1.6084464663636362
mp-1228274,Bi13Pb3Cl7O19,-1.6283415300373814
mp-1194687,Bi13Pt3I7,-0.2714835525
mp-1105985,Bi14Mo5,0.3558087657894737
mp-1197854,Bi14Mo5O36,-1.8703897251818191
mp-691119,Bi14MoO24,-1.7184752700000006
mp-1229189,Bi14Pb4Cl8O21,-1.6055823126027664
mp-542522,Bi14PdBr16,-0.5254196209677416
mp-581527,Bi14Rh3,-0.09651691647058873
mp-759924,Bi14SO24,-1.734954605745192
mp-557619,Bi14Te13S8,-0.4255992366428578
mp-705713,Bi14WO24,-1.7166195917948726
mp-685318,Bi15AsO25,-1.675721378445122
mp-685353,Bi15PO25,-1.7645652379486063
mp-686128,Bi15Ru16O55,-1.552635342543605
mp-757852,Bi16O25,-1.5848983205182932
mp-1194717,Bi16Pt11I6,-0.29305502651515114
mp-685341,Bi16Ru16O55,-1.5461550151005752
mp-1178501,Bi17(WO11)3,-1.7315920795518869
mp-1214947,Bi17As5Pb5O43,-1.6873778296250002
mp-680322,Bi17P5Pb5O43,-1.9617159572780605
mp-761532,Bi17W3O34,-1.75996570050926
mp-759031,Bi19(O9F)3,-1.7199839262718373
mp-1228012,Bi19(S9Br)3,-0.7354254179528069
mp-1227984,Bi19(S9I)3,-0.7094688355038272
mp-773884,Bi19O30,-1.5794293205612242
mp-755446,Bi2(BO3)3,-2.078833312589286
mp-1192736,Bi2(Br3N)3,0.7768592080614292
mp-32039,Bi2(MoO4)3,-1.9703531983823528
mp-1194053,Bi2(NCl3)3,0.2445675945371428
mp-26074,Bi2(PO4)3,-2.17856207184874
mp-28975,Bi2(PSe3)3,-0.1860788549123085
mp-1214399,Bi2(Pb2S3)3,-0.8313150527389714
mp-629690,Bi2(PbS2)3,-0.809795164943182
mp-1200203,Bi2(S2O7)3,-1.9225958845043103
mp-760109,Bi2(SO4)3,-1.998069279246324
mp-29833,Bi2(SeO3)3,-1.4671408969308035
mp-568819,Bi20(PtBr12)3,-0.6542760505084746
mp-1197111,Bi20(PtI12)3,-0.4234046869491523
mp-775842,Bi24B2O39,-1.6989320588012833
mp-766249,Bi24Br10O31,-1.500303989211539
mp-560085,Bi24Cl10O31,-1.6853578150976931
mp-680053,Bi24Ru3Br20,-0.4231553391489361
mp-759766,Bi25BO39,-1.606689434160257
mp-766354,Bi25O38,-1.6052441992460318
mp-1195168,Bi26Mo10O69,-1.852871311392858
mp-698611,Bi28Mo2O47,-1.6765232758279232
mp-1203464,Bi2AsO6,-1.593365089444445
mp-557090,Bi2Au5F21,-1.7665797577674998
mp-618309,Bi2AuO5,-1.2620609782812495
mp-756526,Bi2B2O7,-2.026706123825757
mp-1200581,Bi2B3HO8,-2.3062101446335714
mp-1198385,Bi2B8O15,-2.641192488483333
mp-754692,Bi2BO5,-1.9528206997395827
mp-1227332,Bi2BrClO2,-1.530776139293333
mp-1196308,Bi2C3(BrN)9,0.5971106772752164
mp-556210,Bi2CO5,-1.7977559299999992
mp-1016214,Bi2H18C3(IN)9,-0.5190793840934153
mp-1207151,Bi2I2O,-0.31926712424999976
mp-1227605,Bi2IBr,-0.3824831583333334
mp-1101783,Bi2Ir,-0.0067823549999997575
mp-558392,Bi2Ir2O7,-1.4754332835227273
mp-580127,Bi2Mo2O9,-1.9522290845192305
mp-25708,Bi2MoO6,-1.9083084527777767
mp-1200015,Bi2N2O9,-1.0709755962956398
mp-1227833,Bi2NO6,-0.643550349986666
mp-753309,Bi2OF4,-2.553482800858571
mp-554545,Bi2Os2O7,-1.5017914980681828
mp-631571,Bi2OsAu,0.7063287137499996
mp-1044873,Bi2P2O9,-2.08816381254121
mp-1214442,Bi2P3(PbO4)3,-2.058996364571428
mp-28541,Bi2P4O13,-2.489427891832707
mp-1194903,Bi2PO6,-2.027095764960317
mp-680181,Bi2Pb2S5,-0.7794202562847224
mp-570930,Bi2Pb2Se5,-0.456769496996528
mp-675831,Bi2Pb3F12,-2.6976937314282345
mp-1229287,Bi2PbF8,-2.5750301808654554
mp-641924,Bi2PbS4,-0.7756670844642853
mp-675543,Bi2PbSe4,-0.4342621891964283
mp-568746,Bi2Pd,-0.2330601183333331
mp-1201497,Bi2Pd(SeO3)4,-1.3511192162828949
mp-1227497,Bi2Pd3PtO8,-1.1675405271428565
mp-1103697,Bi2Pd3Se2,-0.3594393688839282
mp-30464,Bi2Pd5,-0.26951061071428584
mp-29259,Bi2PdO4,-1.4189728557142849
mp-1227322,Bi2PdPt,-0.3040810325000001
mp-23341,Bi2Pt2O7,-1.3442676730681824
mp-1103724,Bi2Pt3Se2,-0.3107947895982142
mp-23217,Bi2Rh,-0.18800419500000007
mp-555225,Bi2Rh2O7,-1.4744025248863633
mp-977592,Bi2Rh3S2,-0.5675485354464291
mp-23445,Bi2Ru2O7,-1.5652063676136356
mp-652711,Bi2Ru3(CO)9,-0.8758338498913041
mp-1078366,Bi2S2O,-1.070227628875
mp-1197960,Bi2S2O9,-1.9736009524519245
mp-27891,Bi2SO2,-1.3797532923124998
mp-1201092,Bi2SO7,-1.59248619453125
mp-1227440,Bi2Sb2(TeSe)3,-0.2617320205781247
mp-1227407,Bi2Sb2Te3,-0.10531599428571424
mp-1182077,Bi2Se,-0.06916557119791672
mp-29843,Bi2Se2Cl7,-1.1002907011370455
mp-1227504,Bi2Se2S,-0.4809387187500008
mp-1193554,Bi2Se3O10,-1.4258407598854168
mp-505564,Bi2Se4Cl7,-0.9461393657457696
mp-1200639,Bi2Se5Cl7,-0.8698378969313393
mp-552098,Bi2SeO2,-1.2658106262187494
mp-29839,Bi2SeO5,-1.5927757974804682
mp-754798,Bi2SeO6,-1.351107035121527
mp-1227413,Bi2Te,0.00992385166666665
mp-667426,Bi2Te2O7,-1.6310116539772732
mp-27910,Bi2Te2S,-0.4158303768125002
mp-1192658,Bi2Te2SeO10,-1.5264407647395823
mp-624387,Bi2Te2W3O16,-1.9216948930434783
mp-566831,Bi2Te2WO10,-1.7815766118333332
mp-29991,Bi2Te4Cl7,-0.9525812420438462
mp-28990,Bi2Te4O11,-1.5905217863970589
mp-676250,Bi2Te4Pb,-0.27978284714285706
mp-569044,Bi2Te5Pb2,-0.25107918111111144
mp-30097,Bi2Te7Cl8,-0.8138896621223528
mp-23435,Bi2TeI,-0.2503221875000001
mp-1194678,Bi2TeIClO8,-1.4143319258276916
mp-755419,Bi2TeO2,-1.1916716604999995
mp-23334,Bi2TeO5,-1.65770167359375
mp-27251,Bi2TeO6,-1.6318512141666668
mp-1227356,Bi2TeSe2,-0.3372904134375005
mp-505612,Bi2W2O9,-2.031803239134616
mp-705040,Bi2W3(CO)15,-0.6981576770000012
mp-25177,Bi2WO6,-1.9627715897222235
mp-35397,Bi2WO8,-1.4257519027272727
mp-1047521,Bi3(AsO4)4,-1.4185947045652163
mp-1192903,Bi3(AsO5)2,-1.6624804275000002
mp-1191820,Bi3(B3O7)2,-2.3855538496739133
mp-1205424,Bi3(PO5)2,-2.1800763674523806
mp-1193877,Bi3(TeCl5)2,-1.1956326725066668
mp-642320,Bi32P10Pb3O76,-2.038102656582054
mp-680086,Bi34Ir3Br37,-0.4549001282432432
mp-1183505,Bi3As,0.2827090687499996
mp-1183504,Bi3Au,0.14390014125000006
mp-23549,Bi3B5O12,-2.449308155041668
mp-768969,Bi3B7O12,-2.382068086212121
mp-769033,Bi3BO6,-1.922223533166666
mp-866311,Bi3BrO4,-1.57396295875
mp-29558,Bi3ClO4,-1.6705014772825004
mp-772910,Bi3IO4,-1.4953351806249993
mp-772189,Bi3Ir3O11,-1.4503051386029409
mp-1189810,Bi3Mo,0.3500479137500001
mp-28946,Bi3NF6,-2.2070568557020005
mp-1022722,Bi3O2,-0.9757225575
mp-759405,Bi3O2F5,-2.466068704345001
mp-757162,Bi3O4F,-1.8489526607737496
mp-753707,Bi3O5,-1.5454213532812506
mp-1044088,Bi3O7,-1.1845023243749992
mp-1183506,Bi3P,0.4157599432142858
mp-1041261,Bi3P3O13,-2.1807252651409774
mp-1227518,Bi3P3O14,-1.9744270359464289
mp-775485,Bi3PO7,-2.095431935838744
mp-1183465,Bi3Pb,0.10101272625000003
mp-1227592,Bi3PbWClO8,-1.8205934455900004
mp-1227450,Bi3Pd12Pb,-0.2520969284375001