task_id,composition,formation_energy_per_atom
mp-1076977,DyAlGe,-0.6508300883333332
mp-1213060,DyAlGe2O7,-2.8921871230681817
mp-3053,DyAlNi,-0.6053279299999998
mp-1225297,DyAlNi4,-0.5229680099999996
mp-756630,DyAlO3,-3.7645744142500006
mp-1103382,DyAlPd,-0.8849265758333331
mp-1103319,DyAlPt,-1.1613063191666662
mp-1206330,DyAlSi,-0.6219456533333331
mp-1018674,DyAlZn,-0.4502056483333329
mp-5632,DyAsO4,-2.865578811666666
mp-1102068,DyAsPd,-1.1927375125000002
mp-1103232,DyAsPt,-1.2092462283333336
mp-1102052,DyAsS,-1.7836232480208338
mp-1102952,DyAsSe,-1.441370235364584
mp-1007918,DyAu,-0.8891547900000001
mp-11241,DyAu2,-0.8671025400000006
mp-1080590,DyAu3,-0.7202796462499998
mp-1199277,DyAu6,-0.4095517426785713
mp-1103476,DyB12,-0.2501302130769235
mp-2057,DyB2,-0.5632540377777779
mp-15644,DyB2C,-0.5302927489583329
mp-1024993,DyB2Ir3,-0.6752168222222217
mp-571041,DyB2Rh2C,-0.5928677453472216
mp-1025143,DyB2Rh3,-0.7090762288888897
mp-3092,DyB2Ru3,-0.4735295030555555
mp-1206856,DyB3Mo,-0.6120782889999987
mp-2719,DyB4,-0.6000357483333332
mp-1225314,DyB4(IrRh)2,-0.5551054485185184
mp-864993,DyB4Mo,-0.6262416211111107
mp-984836,DyB4Ru,-0.6332507161111115
mp-9936,DyBC,-0.03855612180555449
mp-12315,DyBO3,-3.5424592080833337
mp-3183,DyBRh3,-0.8003248433333342
mp-31189,DyBe13,-0.1832330453571431
mp-1225311,DyBeCu4,-0.15168064916666602
mp-1212971,DyBeNF6,-2.7687713710577766
mp-22907,DyBi,-0.8489796375000003
mp-552992,DyBi2BrO4,-2.362157596875001
mp-552008,DyBi2ClO4,-2.4762911497825
mp-546266,DyBi2IO4,-2.291414386875001
mp-1225388,DyBi3(Ru2O7)2,-1.8218389105681825
mp-1207000,DyBiO3,-1.6871264757500009
mp-30307,DyBiRh,-0.744059567222223
mp-1225332,DyBiRu2O7,-2.0833238089772723
mp-864986,DyBr2,-1.5264513233333326
mp-864982,DyBr3,-1.85837572875
mp-541840,DyC2,-0.1910618024999996
mp-1200026,DyCO4,-2.545665194699075
mp-770,DyCd,-0.3173199524999997
mp-11295,DyCd3,-0.28197499875
mp-1227006,DyCd6,-0.17885441273809513
mp-867256,DyCdAg2,-0.2873870062499999
mp-1206542,DyCdAu,-0.6565018294444447
mp-867827,DyCdAu2,-0.67193196875
mp-1078853,DyCdCu,-0.29013242500000025
mp-1079242,DyCdGa,-0.5089426172222223
mp-864884,DyCdHg2,-0.3690718012500001
mp-1225370,DyCdIn,-0.3740608994444449
mp-1071811,DyCdNi4,-0.3526140491666669
mp-867276,DyCdPd2,-0.7349099537499999
mp-1183773,DyCdPt2,-0.8279215787499998
mp-867900,DyCdRh2,-0.5740028387500002
mp-28448,DyCl3,-2.696853616195
mp-1178362,DyClO,-3.557861158170001
mp-1206207,DyClO2,-2.3072689214399995
mp-2628,DyCo2,-0.20117256666666586
mp-568945,DyCo3,-0.17745582916666672
mp-20193,DyCo3B2,-0.4942353988888885
mp-1195923,DyCo3P2,-0.9359588790476188
mp-2551,DyCo5,-0.1062012266666675
mp-1204813,DyCo5P3,-0.8403142418253972
mp-1212868,DyCoB4,-0.5900223211111104
mp-20350,DyCoC,-0.31419637291666663
mp-3847,DyCoC2,-0.3443009593749995
mp-1102863,DyCoGe,-0.6585094874999994
mp-1225312,DyCoNi,-0.2952855616666656
mp-24848,DyCoO3,-2.672543177250001
mp-19767,DyCoSi,-0.7232168000000007
mp-1225286,DyCoSi2Rh,-0.9512646940000004
mp-22228,DyCoSn,-0.4879252091666662
mp-20579,DyCoSn2,-0.38029134875000015
mp-1237565,DyCr2O2,-1.0999292409999994
mp-1206533,DyCr2Si2C,-0.4652960647916658
mp-1213562,DyCrC6(N3O2)2,-0.014112003432221815
mp-1213026,DyCrGeO5,-2.8462440392187487
mp-1212873,DyCrO2,-2.467326115625
mp-19381,DyCrO3,-3.22604622575
mp-18754,DyCrO4,-2.7959560875
mp-1225651,DyCrS3,-1.6633831411874993
mp-1212865,DyCrSb3,-0.4229331094999999
mp-2334,DyCu,-0.24495060499999965
mp-560432,DyCu(MoO4)2,-2.349455363229166
mp-505168,DyCu(WO4)2,-2.3854390925000004
mp-1071835,DyCu2,-0.2745772283333334
mp-1072033,DyCu4Ag,-0.21690668833333268
mp-1206430,DyCu4Pd,-0.3612831233333337
mp-30578,DyCu5,-0.1878588299999997
mp-1212997,DyCu5Sn,-0.25803862392857113
mp-10992,DyCuAs2,-0.8179423925
mp-20010,DyCuGe,-0.687269939999999
mp-1183771,DyCuO3,-2.2471041447500006
mp-22085,DyCuPb,-0.3863476866666673
mp-1225327,DyCuPbS3,-1.4354807470312505
mp-601257,DyCuPbSe3,-1.0077050934635416
mp-554120,DyCuS2,-1.70795031328125
mp-600449,DyCuSb2,-0.6088517675
mp-675349,DyCuSe2,-1.2114545742968748
mp-9304,DyCuSeO,-2.1585496612109374
mp-5365,DyCuSi,-0.669882313333332
mp-22188,DyCuSn,-0.6027210533333319
mp-945779,DyCuTe2,-0.8865347262499998
mp-554882,DyCuTe2ClO6,-2.00557366666
mp-1225278,DyEr,0.016096727499999908
mp-1183856,DyEr3,-0.0029391312499997824
mp-1183800,DyErAg2,-0.32751757375000023
mp-1183795,DyErAl2,-0.3866237687500007
mp-1225265,DyErAl4,-0.5098502725000008
mp-1183828,DyErCd2,-0.3049586187500002
mp-1183862,DyErCu2,-0.26146818874999944
mp-1226057,DyErFe14B,-0.11309855700980286
mp-1225587,DyErMn4,0.11396509583333388
mp-772188,DyErO3,-3.965659466416666
mp-1183794,DyErRh2,-0.8868792762500011
mp-1183783,DyErRu2,-0.3629970737500008
mp-1225578,DyErTe2,-1.24239488125
mp-1183804,DyErTl2,-0.33250198875000025
mp-1183842,DyErZn2,-0.33068350875
mp-1212889,DyF3,-4.450874065059167
mp-1757,DyFe2,-0.08239936500000056
mp-1225817,DyFe2Co2B,-0.2918664927777783
mp-568668,DyFe2SiC,-0.5286474767499996
mp-1199045,DyFe3(BO3)4,-2.667552350916666
mp-1189224,DyFe4(CuO4)3,-1.75572981025
mp-568006,DyFe5,-0.04988798666666838
mp-1226261,DyFe5Bi4O15,-1.97882758855
mp-1201079,DyFe5P3,-0.7420334134920634
mp-1191987,DyFeB4,-0.6128332627777778
mp-1018065,DyFeC2,-0.26752670437500026
mp-1225619,DyFeCu,-0.05614711833333411
mp-1080645,DyFeGe2,-0.4622026975000004
mp-622558,DyFeGe2O7,-2.5417195148863643
mp-745208,DyFeH8C6(N3O2)2,-0.6739113132976917
mp-1225668,DyFeNi,-0.16418693833333364
mp-1225612,DyFeNi4,-0.2529373183333341
mp-24953,DyFeO3,-2.9653771362500003
mp-30604,DyGa,-0.6258002749999996
mp-20064,DyGa2,-0.6383314366666664
mp-568354,DyGa2Cu3,-0.3033885883333323
mp-1095135,DyGa2Ni,-0.6393366674999994
mp-1092296,DyGa2Pd,-0.7947229199999999
mp-865103,DyGa3,-0.5282260312499996
mp-1212835,DyGa3(BO3)4,-2.799703901583333
mp-1225592,DyGa3Cu,-0.44893850399999946
mp-542992,DyGa3Ni2,-0.5642454988888895
mp-1105019,DyGa3Ru,-0.5789878690000004
mp-1078003,DyGa5Co,-0.4520569728571426
mp-1104534,DyGa6,-0.2900571914285709
mp-1225625,DyGaAg,-0.4754901333333326
mp-605252,DyGaCo,-0.4931373883333325
mp-1225686,DyGaCo4,-0.22926411666666624
mp-1225818,DyGaFeCo3,-0.249217365000001
mp-1213126,DyGaGe2O7,-2.6209133144318177
mp-1102760,DyGaNi,-0.6100777583333338
mp-769015,DyGaO3,-3.171190046416667
mp-22129,DyGaPd,-0.8966494099999996
mp-1189769,DyGaPd2,-0.8931257224999998
mp-1095583,DyGaPt,-1.107229093333333
mp-862666,DyGaRh2,-0.8210822074999999
mp-1225852,DyGaSe3,-1.00622751315625
mp-1188410,DyGe2Ir,-0.7978995243749996
mp-616492,DyGe2Pt,-0.8679218725000002
mp-22149,DyGeAu,-0.8305083516666674
mp-21323,DyGeIr,-0.9274796591666666
mp-1190638,DyGePd,-0.9950394504166672
mp-1106158,DyGePd2,-0.9094418568749996
mp-20739,DyGePt,-1.1348410200000008
mp-9529,DyGeRh,-0.9837770158333328
mp-19986,DyGeRu,-0.7199693858333328
mp-1213621,DyH13C8N6O13,-1.1850675172582923
mp-24151,DyH2,-0.7866423124133336
mp-1198602,DyH2C2SNO9,-1.6088681367145314
mp-1191571,DyH3,-0.7125317893816666
mp-24831,DyH4I3O11,-1.4638332680647368
mp-605302,DyH6C6Cl3(O3F2)3,-1.6901273364480638
mp-698454,DyH9C5(NO4)2,-1.3189512838435995
mp-755659,DyHO2,-3.0369243840299998
mp-1207186,DyHSe,-1.4924139224045831
mp-2443,DyHg,-0.4781500149999998
mp-11367,DyHg2,-0.38262899
mp-864994,DyHg3,-0.34619716874999984
mp-1225502,DyHo,0.016106412500000108
mp-1183844,DyHo3,-0.0021142949999992666
mp-1225500,DyHoAl4,-0.5135951675000007
mp-1183820,DyHoHg2,-0.4684486737499998
mp-984767,DyHoIn2,-0.4506620754166671
mp-984768,DyHoIr2,-0.8285470612500001
mp-862692,DyHoMg2,-0.07130074124999998
mp-1225530,DyHoMn4,0.13190661583333352
mp-768145,DyHoO3,-3.949266416416669
mp-1183786,DyHoRu2,-0.34820500874999993
mp-1183780,DyHoTl2,-0.33129942375
mp-1183799,DyHoZn2,-0.3317391387499997
mp-865005,DyI3,-1.3737791162500002
mp-1206888,DyI6,-0.09574672714285727
mp-257,DyIn,-0.4504176366666664
mp-1079916,DyIn2Ni,-0.4250789404166664
mp-1213298,DyIn2Pd,-0.6546776649166659
mp-20236,DyIn3,-0.3937739625000005
mp-639756,DyIn3Cu2,-0.09383323833333357
mp-1078142,DyIn5Co,-0.22639547666666715
mp-20996,DyIn5Rh,-0.4054690738095239
mp-1226099,DyIn7Cu5,-0.06084117179487145
mp-20898,DyInAg2,-0.3657428333333329
mp-30374,DyInAu2,-0.7054474658333332
mp-1095190,DyInCo2,-0.2483035245833332
mp-1024940,DyInCo4,-0.13428676222222194
mp-1080594,DyInCu,-0.4161677200000003
mp-1080384,DyInCu4,-0.27062186722222137
mp-22723,DyInIr,-0.6942701355555548
mp-569086,DyInNi,-0.4990865288888892
mp-768149,DyInO3,-3.01543495175
mp-30606,DyInPd2,-0.8207026033333333
mp-22384,DyInPt,-0.9984231366666664
mp-1025113,DyInPt4,-0.8025926755555552
mp-567588,DyInRh,-0.7521575488888893
mp-861892,DyInRh2,-0.7558182108333336
mp-2417,DyIr3,-0.4092520874999997
mp-1183846,DyLu3,-0.006054727499999579
mp-1183791,DyLuAg2,-0.3276780699999997
mp-1183826,DyLuCd2,-0.2989531999999997
mp-1183810,DyLuCu2,-0.2638565549999994
mp-1183792,DyLuHg2,-0.4638650349999995
mp-1183806,DyLuIn2,-0.4163062166666665
mp-1183808,DyLuIr2,-0.8588252449999993
mp-866295,DyLuMg2,-0.05779822499999996
mp-756469,DyLuO3,-4.0073578377500025
mp-1183831,DyLuRh2,-0.9194729475
mp-1183818,DyLuRu2,-0.4009878174999999
mp-1183789,DyLuTl2,-0.29651288750000004
mp-1183798,DyLuZn2,-0.3318350324999999
mp-2077,DyMg,-0.07813058499999981
mp-1212987,DyMg(BO2)5,-3.120679095931372
mp-1184537,DyMg149,-0.021622338666666487
mp-30602,DyMg2,-0.06286047750000012
mp-13225,DyMg2Cu9,-0.17117398999999978
mp-1183781,DyMg2Sc,-0.04728961499999995
mp-1546,DyMg3,-0.06651033999999978
mp-1078820,DyMgAg,-0.2761819633333332
mp-862680,DyMgAg2,-0.3068103099999999
mp-1205756,DyMgAu,-0.6781603766666665
mp-867762,DyMgAu2,-0.7813678824999997
mp-867773,DyMgCd2,-0.3070822899999999
mp-1205763,DyMgGa,-0.4843297944444444
mp-867826,DyMgHg2,-0.4565354625
mp-20573,DyMgIn,-0.38196051222222216
mp-1078639,DyMgPd,-0.6870713166666668
mp-867831,DyMgRh2,-0.7143907325000001
mp-1232163,DyMgS3,-1.6572045789374996
mp-1238023,DyMgSe3,-1.14782323365625
mp-867348,DyMgSn,-0.567666678333333
mp-1206809,DyMgTl,-0.31712474944444424
mp-866007,DyMgTl2,-0.2029935575000001
mp-865142,DyMgZn2,-0.3337678999999998
mp-20656,DyMn12,-0.0009122923076931172
mp-1225876,DyMn2(Cr2Ge3)2,-0.22478137769230627
mp-1096947,DyMn2O4,-2.734836503845713
mp-25040,DyMn2O5,-2.6639578772712493
mp-1205851,DyMn2SiC,-0.5118253057499971
mp-1225693,DyMn2SiGe,-0.5536829589999996
mp-640859,DyMn4(CuO4)3,-1.8585882599419998
mp-1225534,DyMnAl,-0.2335430799999993
mp-1213015,DyMnCrO5,-2.6992086412137493
mp-1195036,DyMnCu4P3,-0.4629736743253972
mp-1225552,DyMnFe,0.02915871333333205
mp-1212984,DyMnFeO5,-2.59892558058875
mp-1080064,DyMnGa,-0.26740272111111096
mp-21155,DyMnGe,-0.49139985999999897
mp-562154,DyMnO3,-3.074577507942001
mp-22101,DyMnSi,-0.5130851483333329
mp-1202416,DyMnSn2,-0.3736629522916672
mp-1192462,DyMoBrO4,-2.5799670128571424
mp-1189253,DyMoC2,-0.2460277468750008
mp-565666,DyMoClO4,-2.7462664547514284
mp-686909,DyMoO4F,-3.06446945767
mp-1213168,DyMoO5,-2.538923111964285
mp-1193457,DyN3O10,-1.2923212256885708
mp-1213404,DyN3O14,-0.6743811035911101
mp-1213400,DyN7O15,-0.6665182048728981
mp-556639,DyNbO4,-3.5880825041666675
mp-866126,DyNbRu2,-0.2905602049999985
mp-2738,DyNi,-0.4530620937499998
mp-421,DyNi2,-0.4473555633333331
mp-6223,DyNi2B2C,-0.5129795503472216
mp-1077279,DyNi4Au,-0.3761388599999999
mp-1179,DyNi5,-0.3284250349999998
mp-1212806,DyNiAs,-1.0518281550000002
mp-1190599,DyNiB4,-0.5793699077777781
mp-30452,DyNiBi,-0.6702540683333341
mp-4587,DyNiC2,-0.3351566843749998
mp-1102455,DyNiGe,-0.7950228191666671
mp-1087478,DyNiGe3,-0.5756625760000006
mp-19265,DyNiO3,-2.4090795097499997
mp-1102152,DyNiP,-1.2178310023809529
mp-4510,DyNiSb,-0.904365475
mp-1079636,DyNiSb2,-0.6774805987499999
mp-580525,DyNiSn2,-0.5711585810416663
mp-1212896,DyNiSn4,-0.3552667524999992
mp-1183869,DyNp3,0.7158133084375002
mp-1183816,DyNpRu2,-0.1855247596874996
mp-1206731,DyO2,-3.185972904166667
mp-984359,DyO3,-2.0132968759375
mp-1072208,DyOF,-4.292754764146667
mp-1102508,DyOs2,-0.32441080999999866
mp-1183851,DyOs3,0.4167749974999992
mp-2014,DyP,-1.6132748210714285
mp-1226255,DyP2(HO2)5,-2.2947657011047604
mp-707992,DyP2H9O10,-1.6504959954257146
mp-9850,DyP5,-0.5346523951190475
mp-554583,DyP5O14,-2.8505770804107144
mp-1212811,DyPPd,-1.2670255923809524
mp-16326,DyPPt,-1.3534676273809525
mp-1205848,DyPRu2C,-0.6791846291785717
mp-1192185,DyPS,-1.7891425604017854
mp-5241,DyPS4,-1.4749510974404758
mp-1183835,DyPa,0.20118417500000074
mp-1183793,DyPa3,0.17689653249999893
mp-1183790,DyPaO3,-2.83982528875
mp-1225510,DyPaO4,-4.207196237500002
mp-867279,DyPaRu2,-0.3987910049999997
mp-867278,DyPaTc2,-0.14001915499999915
mp-20176,DyPb3,-0.26369693000000005
mp-11242,DyPbAu,-0.6773681900000005
mp-2226,DyPd,-0.8987828250000005
mp-1063239,DyPd2,-0.6146337166666669
mp-1206592,DyPd2Pb,-0.6976244975000006
mp-797,DyPd3,-0.8909082425000001
mp-1080454,DyPdPb,-0.7233803722222218
mp-1078613,DyPt,-1.28177662625
mp-916,DyPt2,-1.1082380650000008
mp-2465,DyPt3,-1.022732594999999
mp-17160,DyPtF7,-2.9405240925922222
mp-1183910,DyPu3,0.2583949698437493
mp-1102210,DyRe2,-0.2037575366666644
mp-1206141,DyRe2SiC,-0.4630368347499981
mp-1201741,DyRe3O16,-1.5920312234999998
mp-1190368,DyReB4,-0.5897388740277781
mp-1388,DyRh2,-0.7486211666666674
mp-1183779,DyRh2Pb,-0.5611903525000006
mp-15856,DyRh3C,-0.5099201277500015
mp-30620,DyRh5,-0.2861630166666676
mp-1212884,DyRhO3,-2.59888806875
mp-1183778,DyRu3,0.1666057387499995
mp-1206121,DyRu3C,-0.2101548407500005
mp-2470,DyS,-2.3267646970312508
mp-28928,DySBr,-2.2520774013541662
mp-561307,DySCl,-2.5911635441075007
mp-28929,DySI,-2.0433364146875
mp-1007,DySb,-1.1283426524999998
mp-1018158,DySb2,-0.20073513333333412
mp-1183836,DySb3,-0.4002348387500003
mp-1212836,DySbIr,-0.8896849816666664
mp-566757,DySbMo2O9,-2.4461920350961543
mp-1207184,DySbO3,-1.91286447375
mp-1236840,DySbO4,-2.8862083962500003
mp-12041,DySbPd,-1.0773621549999994
mp-16327,DySbPt,-1.2230375383333332
mp-1212894,DySbRh,-1.0031582983333334
mp-1184063,DySbRh2,-0.7263126987500002
mp-1225550,DySbTe3,-0.7386404090000014
mp-31120,DyScO3,-3.9794263657499997
mp-1184176,DyScS3,-2.3861476194375006
mp-1018677,DyScSb,-0.8520045383333338
mp-1184079,DyScZn2,-0.33674672250000004
mp-814,DySe,-1.744079079296875
mp-1018683,DySe2,-1.5601005007291668
mp-558257,DySeClO3,-2.498081650517291
mp-1206751,DySeI,1.3237089788020835
mp-769393,DySeO3,-2.5411726507187504
mp-1182,DySi,-0.8299093112500007
mp-12770,DySi2,-0.5395500933333336
mp-4171,DySi2Ni,-0.8411447012499993
mp-30621,DySi2Rh3,-1.0242532966666669
mp-1070146,DySi3Ir,-0.7762113880000001
mp-1213227,DySi3Ni5,-0.7168824436111108
mp-22830,DySi3Rh5,-0.9755431938888892
mp-1095130,DySiAg,-0.5944814333333331
mp-1077126,DySiNi4,-0.6150786283333325
mp-1205579,DySiOs2C,-0.517631220749999
mp-1105784,DySiPd2,-0.9802493137500008
mp-20571,DySiPt,-1.195602160833334
mp-1188085,DySiPt2,-1.1707255612500005
mp-1212831,DySiRh,-1.0528697950000006
mp-19873,DySiRu,-0.8297464241666669
mp-570595,DySiRu2C,-0.6178343017500012
mp-20021,DySn2,-0.5917457183333342
mp-31414,DySnAu,-0.8193122399999998
mp-866287,DySnAu2,-0.6882849962500002
mp-1080405,DySnGe,-0.6201214216666658
mp-1184153,DySnO3,-2.1676132117500004
mp-30618,DySnPd,-0.9181203191666658
mp-21014,DySnPd2,-0.8756140887499999
mp-1078760,DySnPt,-1.0908807694444438
mp-1079974,DySnRh,-0.902226573888889
mp-866290,DySnRh2,-0.7917210037500002
mp-1184071,DyTa3,0.3990351775000001
mp-1212958,DyTa5Ag2O15,-3.017558601902173
mp-15492,DyTa7O19,-3.440424116064813
mp-7703,DyTaO4,-3.756140005833332
mp-865364,DyTaRu2,-0.3639207349999989
mp-1102084,DyTc2,-0.17698194500000022
mp-2159,DyTe,-1.276144515
mp-1018679,DyTe2,-1.1494185783333333
mp-1086673,DyTe3,-0.9215169224999996
mp-756897,DyTe3O8,-2.019943859583333
mp-1212803,DyTeAs,-1.1774946333333336
mp-20379,DyTh,0.1500411100000001
mp-1225515,DyTh2,0.014839326666666134
mp-1184093,DyTh3,0.03245541750000047
mp-1225528,DyThCN,-1.0326327402825006
mp-1226066,DyThFe14B,-0.10952871598039048
mp-1225519,DyThN2,-1.81175075119
mp-1225636,DyThRe4,-0.14935293583333356
mp-1184103,DyThRu2,-0.42383045249999896
mp-866011,DyThTc2,-0.02615213250000004
mp-556108,DyTiClO3,-3.5500009131127777
mp-1225715,DyTiFe11C,-0.09777339967261968
mp-20626,DyTiGe,-0.6892113505555552
mp-779599,DyTiO3,-3.6496210265833335
mp-20954,DyTiSi,-0.6516492855555569
mp-11374,DyTl,-0.3360436574999999
mp-1213009,DyTl(MoO4)2,-2.4492070795833327
mp-1105239,DyTl(PSe3)2,-0.6293116860848216
mp-1212931,DyTl(WO4)2,-2.5110950641666663
mp-1225567,DyTl2InS4,-1.214522537447917
mp-2415,DyTl3,-0.21167859874999986
mp-755183,DyTlO2,-2.7279834918749994
mp-11373,DyTlPd,-0.6586407516666668
mp-1184061,DyTlRh2,-0.5469672612499998
mp-31166,DyTlS2,-1.8214436307812507
mp-568062,DyTlSe2,-1.3843362880468757
mp-1007908,DyTlTe2,-1.0528921687499997
mp-1018680,DyTlZn,-0.30022009333333344
mp-1184143,DyTm3,-0.0026171824999998705
mp-1184080,DyTmAg2,-0.3282694900000003
mp-1184116,DyTmCd2,-0.3027839750000001
mp-1184109,DyTmCu2,-0.26360282999999995
mp-1225933,DyTmFe14B,-0.1142998396568624
mp-1184135,DyTmHg2,-0.4658984424999999
mp-1184137,DyTmIn2,-0.43136594916666704
mp-1184120,DyTmIr2,-0.8388480824999993
mp-866013,DyTmMg2,-0.062707085
mp-1225536,DyTmMn4,0.09947325000000024
mp-752435,DyTmO3,-3.97920137375
mp-1184158,DyTmRh2,-0.8992261825000005
mp-1184074,DyTmRu2,-0.3789669550000001
mp-1206004,DyU2S3O2,-2.748921474335937
mp-1184142,DyU3,0.5461028524999989
mp-1225531,DyUAl4,-0.2354154549999995
mp-1225554,DyUN2,-1.6684420186899995
mp-1225573,DyUTe4,-0.936933786666667
mp-1225110,DyUTe6,-0.6839113112499993
mp-1225106,DyV2Fe10N,-0.18999157802714506
mp-1191899,DyVB4,-0.7097602181944443
mp-1212946,DyVO2,-2.53873966125
mp-25144,DyVO3,-3.3048540772500012
mp-18784,DyVO4,-3.225418732500001
mp-1181506,DyVSb3,-0.4959801760000012
mp-1192384,DyWBrO4,-2.5956750857142845
mp-1181428,DyWC2,-0.2839847493749996
mp-770600,DyWO4,-2.9876030725000016
mp-1225109,DyY(FeO3)2,-2.9527026767499995
mp-1184149,DyY3,0.012139642500000214
mp-757197,DyY3O6,-3.9967727017500003
mp-766292,DyY7O12,-3.9915471797500004
mp-971924,DyYAg2,-0.3324735274999995
mp-971922,DyYAl2,-0.4040895099999995
mp-979417,DyYCd2,-0.33614002749999994
mp-979946,DyYCu2,-0.2422728175
mp-1225043,DyYFe4,-0.07529596333333426
mp-971799,DyYHg2,-0.4939602499999998
mp-1184424,DyYIn2,-0.4709865066666668
mp-980387,DyYIr2,-0.7942955749999996
mp-1184136,DyYMg2,-0.08591864749999978
mp-1225181,DyYMn2O6,-3.0622821869419985
mp-768333,DyYO3,-3.910381535750002
mp-979917,DyYRh2,-0.8626461575000004
mp-979434,DyYTl2,-0.351787485
mp-979712,DyYZn2,-0.3489867725
mp-2303,DyZn,-0.33814006249999995
mp-1104551,DyZn12,-0.1665462292307691
mp-570093,DyZn2,-0.38387873999999983
mp-30626,DyZn3,-0.3548279887499999
mp-30627,DyZn5,-0.2779337274999998
mp-1225053,DyZnCuAs2,-0.6606222969999997
mp-1018681,DyZnIn,-0.4280472144444444
mp-1079341,DyZnNi,-0.4537593638888889
mp-549728,DyZnPO,-2.0605816733482145
mp-1078837,DyZnPd,-0.7482763127777774
mp-13379,DyZnRh,-0.7348605424999999
mp-1225041,DyZnSi,-0.6266454183333335
mp-1213053,DyZnSn,-0.5884310524999995
mp-1184123,DyZr,0.10543762999999906
mp-1178359,DyZr4O9,-3.700839784375
mp-1213567,DyZr6(PO4)9,-3.258818811332418
mp-686636,DyZr9Si9PO40,-3.5606008076190485
mp-680636,Er(Al10Cr)2,-0.1355520854347816
mp-1104269,Er(Al2Cu)4,-0.3021437065384616
mp-3633,Er(Al2Fe)4,-0.42708208115384577
mp-1025358,Er(Al2Mo)2,-0.3783662749999997
mp-571253,Er(Al3Ni)3,-0.5184382403846153
mp-1212845,Er(Al5Fe)2,-0.34821549576923105
mp-1213047,Er(Al5Re)2,-0.3473048102564098
mp-1212826,Er(Al5Ru)2,-0.5041603811538468
mp-1104636,Er(AlC)3,-0.3135037380357143
mp-1225092,Er(AlFe)6,-0.3854509834615385
mp-13069,Er(AlGe)2,-0.3912479110000007
mp-10856,Er(BC)2,-0.4427054191666671
mp-1189046,Er(BIr)4,-0.5010684874074072
mp-680718,Er(BO2)3,-3.2157900275
mp-8408,Er(BRh)4,-0.5831300001851851
mp-1196250,Er(BRu)4,-0.4999906526851845
mp-772790,Er(Bi3O5)4,-1.765470552121212
mp-754989,Er(BiO2)3,-2.21770976075
mp-1181421,Er(ClO2)3,-1.2774021037280008
mp-29888,Er(ClO4)3,-1.0922080487362509
mp-1188589,Er(Co2B)6,-0.3422582450000002
mp-1212824,Er(Co2Ge)2,-0.38825900785714296
mp-568509,Er(CoB)2,-0.5780020276666662
mp-5497,Er(CoGe)2,-0.6008468529999987
mp-3239,Er(CoSi)2,-0.8297338229999994
mp-12082,Er(CrSi)2,-0.4337111589999992
mp-5083,Er(CuGe)2,-0.4735204969999998