task_id,composition,formation_energy_per_atom
mp-754501,Ca(CuO)2,-1.686282197
mp-1047437,Ca(CuO2)2,-1.7179809989285713
mp-7422,Ca(CuP)2,-0.5555186323571434
mp-5486,Ca(CuSi)2,-0.4024085295000006
mp-568974,Ca(CuSn)2,-0.3158137394999997
mp-35787,Ca(DyS2)2,-2.4502286126785715
mp-1227401,Ca(DyTe2)2,-1.4664297025
mp-1194059,Ca(ErS2)2,-2.4790824048214293
mp-1227387,Ca(ErTe2)2,-1.4515945039285714
mp-31851,Ca(Fe2O3)2,-2.067208548181819
mvc-13333,Ca(Fe9O13)2,-1.776522260444445
mp-1068300,Ca(FeAs)2,-0.5346317095000004
mvc-15578,Ca(FeN)2,-0.09573443845199987
mvc-12043,Ca(FeO2)2,-2.326500694285715
mvc-12189,Ca(FeO2)4,-1.8658027213461543
mp-5597,Ca(FeP)2,-0.8478860403571424
mp-1045503,Ca(FeS2)2,-1.086860073392859
mvc-107,Ca(FeS2)4,-0.9745231184615388
mp-13464,Ca(FeSb3)4,-0.1542063445588239
mp-1068250,Ca(FeSi)2,-0.4490497355000002
mp-675750,Ca(Ga3Te5)2,-0.4782261333823532
mp-1070099,Ca(GaAs)2,-0.6337987895000005
mp-559849,Ca(GaO2)2,-2.6485028483928565
mp-1078849,Ca(GaP)2,-0.6683017973571431
mp-14423,Ca(GaS2)2,-1.4977891857142869
mp-13873,Ca(GaSe2)2,-1.0023969899107144
mp-36358,Ca(GdS2)2,-2.4575181798214296
mp-7883,Ca(GeAu)2,-0.4394108975000002
mp-16259,Ca(GeIr)2,-0.6568162415000003
mp-16260,Ca(GePd)2,-0.7116208915000002
mp-1091390,Ca(GePt)2,-0.7773788955000001
mp-16261,Ca(GeRh)2,-0.8041496614999992
mp-19791,Ca(GeRu)2,-0.5145924035000007
mp-644307,Ca(H2N)2,-0.7950570206057144
mp-626227,Ca(H8O5)2,-1.4936950182562958
mp-23879,Ca(HO)2,-2.2362014434479995
mp-1194276,Ca(HoS2)2,-2.4788282166071443
mp-675701,Ca(HoSe2)2,-1.9114125174107148
mp-1227385,Ca(HoTe2)2,-1.4603127967857144
mp-1078208,Ca(IN3)2,1.5977454598022232
mp-1105100,Ca(IO2)2,-1.3184650632142858
mp-27535,Ca(IO3)2,-1.5429382161111116
mp-1193459,Ca(IO6)2,-0.4628476551666675
mp-1227648,Ca(InCu)6,-0.08987445134615349
mp-1029479,Ca(InN)2,-0.4482845997853332
mp-1079772,Ca(InP)2,-0.5820810586904763
mp-1227503,Ca(InS2)2,-1.3392017807738097
mp-677072,Ca(InTe2)2,-0.6242069491666667
mp-674712,Ca(La2Se3)4,-2.013880930505952
mp-755678,Ca(LaI4)2,-1.4790505620454548
mp-35421,Ca(LaS2)2,-2.547844849107144
mp-36031,Ca(LaTe2)2,-1.6013768975000002
mp-505362,Ca(LuS2)2,-2.479243461607143
mp-1227408,Ca(LuTe2)2,-1.4197677939285716
mp-9564,Ca(MgAs)2,-0.9422724074999996
mp-29208,Ca(MgBi)2,-0.5272260415000002
mp-9565,Ca(MgSb)2,-0.7113217854999998
mp-10878,Ca(MnAl2)4,-0.2634689805769225
mp-1227419,Ca(MnAl3)3,-0.25006074903846154
mp-5498,Ca(MnAs)2,-0.4702601954999992
mp-29615,Ca(MnBi)2,0.04593755249999987
mp-19824,Ca(MnGe)2,-0.33602886949999944
mvc-13730,Ca(MnN)2,-0.26008580245199936
mp-6953,Ca(MnP)2,-0.6842791043571417
mp-1045467,Ca(MnS2)2,-1.295005744821429
mvc-93,Ca(MnS2)4,-1.1951740476923085
mp-4150,Ca(MnSb)2,-0.1748805654999998
mp-8530,Ca(Mo3S4)2,-1.2260730093333336
mp-1042046,Ca(MoO2)2,-2.400426466785715
mp-1044218,Ca(MoO2)4,-2.147109289807693
mp-1048485,Ca(MoO3)2,-2.390619176111112
mp-1079409,Ca(NCl)2,0.3661332962439999
mp-3142,Ca(NO3)2,-1.6197942683066668
mp-1182253,Ca(NO4)2,-1.020306143841818
mp-1182399,Ca(NO5)2,-0.6159042488276918
mp-38586,Ca(Nd2Se3)4,-1.876786433125
mp-35876,Ca(NdS2)2,-2.4576591798214293
mp-37263,Ca(NdTe2)2,-1.4885942310714282
mp-21312,Ca(Ni2B)6,-0.3521856967105268
mp-1043722,Ca(Ni2O3)2,-1.2712179100000005
mp-510484,Ca(Ni2Sn)2,-0.3453155875000005
mp-4744,Ca(NiAs)2,-0.6674516814999997
mp-2949,Ca(NiGe)2,-0.5443907434999999
mvc-11775,Ca(NiN)2,-0.15737556445199985
mvc-15041,Ca(NiO2)2,-1.5220097110714297
mp-18718,Ca(NiO2)4,-1.1251746928846154
mp-4064,Ca(NiP)2,-0.8536824563571421
mp-1045498,Ca(NiS2)2,-0.989245958392858
mvc-14449,Ca(NiS2)4,-0.8627168546153854
mp-11168,Ca(PIr)2,-0.8870043223571429
mp-5680,Ca(PO3)2,-2.98944386186508
mp-6926,Ca(PPd)2,-0.8519114243571428
mp-8580,Ca(PRh)2,-0.9629405403571424
mp-5157,Ca(PRu)2,-0.9277287243571428
mp-38347,Ca(Pr2Se3)4,-1.880627893125
mp-34185,Ca(PrS2)2,-2.452194446964288
mp-37520,Ca(PrTe2)2,-1.4978426974999997
mp-558172,Ca(PtO2)2,-1.6009803910714284
mp-1198612,Ca(ReO5)2,-1.7966646188461532
mp-17998,Ca(RhO2)2,-1.8072355614285716
mp-1214392,Ca(SO5)2,-1.3352427360096153
mp-1214123,Ca(Sb3Os)4,-0.11633928161764705
mp-1041690,Ca(SbO2)2,-2.206819093214285
mp-1047976,Ca(SbO2)4,-1.9291024213461536
mp-9125,Ca(SbO3)2,-2.3884848038888893
mp-17597,Ca(ScS2)2,-2.3602999901785715
mp-772779,Ca(SeO3)2,-1.7642413396875003
mp-1214452,Ca(Si9O19)2,-3.019791639824561
mp-7364,Ca(SiAu)2,-0.4804725855000001
mp-5292,Ca(SiNi)2,-0.6427704354999996
mp-1214355,Ca(SiO2)8,-3.0574519121000003
mp-567769,Ca(SiPd)2,-0.7954153095000003
mp-1069956,Ca(SiRh)2,-0.9745359334999996
mp-34196,Ca(Sm2Se3)4,-1.859228175505952
mp-36100,Ca(SmS2)2,-2.4598853176785718
mvc-404,Ca(Sn2O3)2,-1.81617079
mvc-13410,Ca(SnN)2,-0.21529233645199994
mp-1041556,Ca(SnO2)2,-2.3265544825
mp-1047987,Ca(SnO2)4,-2.119475752115384
mp-38327,Ca(TbS2)2,-2.457939462202382
mvc-13408,Ca(TiN)2,-0.7927959571186662
mp-1227354,Ca(TiS2)2,-1.9545657710119064
mvc-11744,Ca(TiS2)4,-1.8941770920512828
mp-1048589,Ca(TiS2)8,-1.8180632826333352
mp-1194132,Ca(TmS2)2,-2.4795757437500003
mp-1227395,Ca(TmTe2)2,-1.4403285882142849
mvc-13487,Ca(VN)2,-0.4879164364519994
mvc-11260,Ca(VS2)2,-1.4494218769642868
mvc-13560,Ca(VS2)4,-1.4682555115384621
mp-1044591,Ca(W2O3)2,-1.2083781240909095
mvc-13850,Ca(WN)2,-0.1656468644520004
mp-1042163,Ca(WO2)2,-2.061729515357144
mp-1045231,Ca(WO2)4,-1.871570260576924
mp-1045717,Ca(WO3)2,-2.4399206927777786
mp-18642,Ca(YS2)2,-2.482991779464286
mp-1227380,Ca(YTe2)2,-1.4841191096428576
mp-675650,Ca(YbS2)2,-1.9754903848214287
mp-9571,Ca(ZnAs)2,-0.6562002815
mp-13911,Ca(ZnGe)2,-0.3140900134999999
mp-1029258,Ca(ZnN)2,-0.5265623304519991
mp-9569,Ca(ZnP)2,-0.6976035403571427
mp-7429,Ca(ZnSb)2,-0.44566988349999975
mp-12137,Ca(ZnSi)2,-0.2858390594999996
mp-570487,Ca10(Al2Ge3)3,-0.5399380472000002
mp-1202534,Ca10Ag(PO4)7,-3.237415161847826
mp-1215019,Ca10Al2Cu19,-0.14623481951612818
mp-695592,Ca10Al6Si13N30,-1.4090398643457633
mp-1019569,Ca10Ge16(B2O17)3,-2.670883078478916
mp-1227456,Ca10Ge6F,-0.948243738305294
mp-695254,Ca10La6Mg3Ti13O48,-3.6083746516458333
mp-569202,Ca10Mg2Sb9,-0.9343192595238098
mp-677026,Ca10Mg7Al6Si17O60,-3.3796292613999994
mp-1227820,Ca10Nb5InO24,-3.2526799804583333
mp-1195864,Ca10P6CO27,-3.2702923618263
mp-686571,Ca10P6ClO24F,-3.376260470412075
mp-29760,Ca10P6O25,-3.3358467560757834
mp-1227747,Ca10P6SO24,-3.308322514437064
mp-17516,Ca10P6SeO24,-3.2882847377183144
mp-683950,Ca10Pr4Cu24O41,-1.8742934724208848
mp-1205012,Ca10Si3Pt7,-0.9152829232500004
mp-42163,Ca10Si3S3(ClO12)2,-3.1175532743739884
mp-1227873,Ca10Si3S3(O12F)2,-3.2281165761801804
mp-1203161,Ca10Si5(ClO10)2,-3.2896802377437835
mp-1227429,Ca10Si6F,-0.8127123653641181
mp-534838,Ca10Ta3Ti4Al3(SiO5)10,-3.4704326858020846
mp-1173088,Ca10TaTi8Al(SiO5)10,-3.485228453385417
mp-693409,Ca10Ti8NbAl(SiO5)10,-3.470059837385416
mp-743819,Ca10Ti8NbFeO30,-3.4553539186166664
mp-1227627,Ca10V3P3(O12F)2,-3.281306322233538
mp-697835,Ca10V5Fe15(BiO24)2,-2.3686183023125
mp-891956,Ca10V6O25,-3.0322845016158535
mp-1214126,Ca10VP5(O12F)2,-3.3843624032879607
mp-4800,Ca11(CN5)2,-1.0003933203826088
mp-1227912,Ca11(Cd9Au2)2,-0.4339617012878789
mvc-11164,Ca11(FeN5)2,-0.8880888159260864
mvc-13041,Ca11(MnN5)2,-0.9406788181
mp-29532,Ca11(ReO6)4,-2.9241097878846163
mp-33318,Ca11Al14O32,-3.462786611622806
mp-1214215,Ca11AlSb9,-0.9787469405952379
mp-677078,Ca11AlSi3ClO18,-3.3984103537723533
mp-694886,Ca11Cr7O28,-2.668005333858695
mp-1214384,Ca11GaSb9,-0.9757168510714288
mp-29722,Ca11InSb9,-0.9743686648015878
mp-680640,Ca11N8,-0.7278891713968414
mp-12241,Ca11Sb10,-0.9446808529761906
mp-1214142,Ca11Si4ClO18,-3.3497276484782352
mp-555508,Ca11Si4SO18,-3.388199058207721
mp-1227537,Ca11Si9As16,-0.7130979936805559
mp-1198370,Ca11Sn3C8,-0.34592487056818233
mp-765152,Ca11Tl9O24,-2.219396876988637
mp-743917,Ca11YAl15Cr4SiO48,-3.1153180681562502
mp-720971,Ca12Al11Si3Cl5O32,-3.415982486607936
mp-530149,Ca12Al14O33,-3.4520235513771182
mp-27407,Ca12Be17O29,-3.19385449674569
mp-1227684,Ca12FeCo7O24,-2.444239378409092
mp-746884,Ca12Mn8Si7(H5O16)3,-2.375518070966444
mp-1227689,Ca12ScCo7O24,-2.580472853409092
mp-1203630,Ca13(Ge11Au25)2,-0.3743387494999999
mp-1193055,Ca13Al14,-0.2571138287962961
mp-1228717,Ca13Nb3(Si2O9)4,-3.407986673541666
mp-1182805,Ca13Si10(O17F5)2,-3.1120552598791043
mp-703370,Ca13Si10H12(O17F5)2,-3.110222988168861
mp-531213,Ca13Y6F43,-4.27089164812371
mp-1214214,Ca14Al12Zn4O35,-3.1814414424423068
mp-567799,Ca14AlSb11,-1.0001349359615388
mp-568790,Ca14GaAs11,-1.1496269405769228
mp-1227899,Ca14Hg51,-0.31034438638461537
mp-695227,Ca14La6Mg3Ti17O60,-3.6012536727333315
mp-532462,Ca14MnAs11,-1.129166862692308
mp-570149,Ca14MnBi11,-0.8057619682692311
mp-532160,Ca14MnP11,-1.1060877809065937
mp-1228737,Ca14MnP9(O12F)3,-3.3782823901399315
mp-568798,Ca14MnSb11,-0.9746917249038468
mp-29013,Ca14Si19,-0.4644918610606054
mp-1227837,Ca15Ni(IrO6)4,-2.629094164602273
mp-1019552,Ca16(SiN2)17,-1.3799573052376122
mp-675153,Ca16HN8,-0.8690469975064002
mp-1227563,Ca16Mg3Sn13,-0.6167943467187498
mp-686347,Ca16MgAl14Si9O56,-3.109035324375
mp-1227708,Ca16Sb11,-1.0245051318518523
mp-677269,Ca16Zr9Ta7N7O41,-3.240743689473875
mp-686346,Ca17(Y7S19)2,-2.238187136548913
mp-1229261,Ca17Ni19(PO4)24,-2.624265374736722
mp-677016,Ca18Eu2P12(SO16)3,-3.2766934113602617
mp-534782,Ca18Nd2Si3P9(O16F)3,-3.4621208015404314
mp-760021,Ca19(Cu12O23)2,-1.9478456256179768
mp-734733,Ca19(Mg4H27)2,-0.5468740128145674
mp-5669,Ca19Ag8N7,-0.6263368076223531
mp-1228767,Ca19Co2(PO4)14,-3.224111255082417
mp-642331,Ca19In8N7,-0.7668490722301956
mp-1228780,Ca19Mg(AsO4)14,-2.6417446989166677
mp-1228644,Ca19Mg2(PO4)14,-3.327062708928572
mp-695095,Ca19Si6S6(ClO24)2,-3.1133748157209267
mp-653005,Ca2(Fe2O3)11,-1.950404164144736
mp-1193221,Ca2(Ni7B2)3,-0.2407323139655179
mp-1227788,Ca2(TlPb)3,-0.2888196999999999
mp-1227416,Ca2(ZnAu3)3,-0.4495425635714285
mp-1191862,Ca2(ZnSn2)3,-0.28966784318181804
mp-1227579,Ca20(CdGa3)3,-0.36147182359375
mp-532089,Ca20Er10F69,-4.309285682193029
mp-1214964,Ca21(Cd2Bi9)2,-0.7705959319186048
mp-581814,Ca21(Mn2Bi9)2,-0.6990112392441858
mp-30217,Ca21(Mn2Sb9)2,-0.8710628912209308
mp-570883,Ca21(Zn18Ni)2,-0.2772327327542372
mp-1194550,Ca21(Zn2As9)2,-1.084530482151162
mp-1194667,Ca21(Zn2Sb9)2,-0.9289080411046514
mp-685437,Ca22H51Rh11,-0.6202559371978558
mp-1228648,Ca24Mg8B16C8O73,-3.021505061766796
mp-685526,Ca28(Yb5S16)3,-2.2596462918131865
mp-568793,Ca28Ga11,-0.31007295205128205
mvc-3809,Ca2Ag2O5,-1.6303499090277767
mp-16770,Ca2Ag7,-0.2405085088888887
mp-983850,Ca2AgAu,-0.5587937787499997
mp-983598,Ca2AgBi,-0.6070999199999996
mp-983566,Ca2AgGe,-0.4833980649999998
mp-864991,Ca2AgPb,-0.46948950125
mp-1183456,Ca2AgPd,-0.5046734262500001
mp-1068053,Ca2AgPd2,-0.6183108909999995
mp-1183516,Ca2AgRh,-0.3274345587499998
mvc-3976,Ca2AgSbO6,-2.19945569525
mp-867751,Ca2AgSn,-0.5358471674999996
mvc-5044,Ca2AgWO6,-2.3840492747500006
mp-1214160,Ca2Al(SiO3)4,-3.1754925981578954
mp-706809,Ca2Al11Si13Ag7O48,-2.879410669197532
mp-1227582,Ca2Al2(SiO4)3,-3.1422624071052634
mp-743780,Ca2Al2FeSi3HO13,-3.1240796943122726
mp-1196208,Ca2Al2FeSi3O13,-3.1275145929166674
mp-540713,Ca2Al2FeSi4BHO16,-3.1412252350106167
mp-1197530,Ca2Al2FeSi4BO16,-3.1673743946794866
mp-10444,Ca2Al2O5,-3.426684780694444
mp-1227593,Ca2Al2Si(HO4)2,-3.0752715548159997
mp-863005,Ca2Al2Si6SnO22,-2.5472470762878787
mp-1227499,Ca2Al2SiO7,-3.4799110207291672
mp-1227478,Ca2Al2SiO8,-3.108452255384615
mp-1196891,Ca2Al2Sn2O9,-2.9714201232499997
mp-1198782,Ca2Al3H3O8,-2.91555416692875
mp-1227590,Ca2Al3O6F,-3.5602792913491674
mp-1214131,Ca2Al3O8,-2.9751598038461533
mp-23915,Ca2Al3Si3HO13,-3.2956755865850003
mp-1195991,Ca2Al3Si3O13,-3.314027720416667
mp-1214293,Ca2Al3Si3O14,-3.0744473471590914
mp-1194616,Ca2Al4(Si2O7)3,-3.191482098674242
mp-1197037,Ca2Al4Si4H10O21,-2.679995332620731
mp-695251,Ca2Al4Si4H18O25,-2.0628410281398115
mp-743762,Ca2Al4Si8H14O31,-2.121660056685254
mp-1228237,Ca2Al4Si8O31,-2.4036456260833337
mp-1200127,Ca2Al4Si8O33,-2.3753825186436166
mp-1200432,Ca2Al8PbO15,-3.331518683125
mvc-5154,Ca2AlAgO5,-2.514196675694444
mvc-5788,Ca2AlBiO5,-2.790335939583333
mp-1095982,Ca2AlCd,1.35311186
mp-1102410,Ca2AlClO8,-1.2564184131883327
mvc-5179,Ca2AlCoO5,-2.82966278125
mvc-5182,Ca2AlCrO5,-3.1216465090277783
mvc-4889,Ca2AlCuO5,-2.7014758390277773
mp-29221,Ca2AlF7,-4.109773260333
mvc-5168,Ca2AlFeO5,-2.9910569829166653
mp-695316,Ca2AlH10BrO8,-1.969813203009092
mp-42175,Ca2AlH10ClO8,-2.011735456793636
mp-677248,Ca2AlH10IO8,-1.9445256336909087
mp-643446,Ca2AlH8S2Cl(O6F)2,-2.276605755811608
mp-1046989,Ca2AlMoO5,-3.000698839583333
mvc-5183,Ca2AlNiO5,-2.6743881773611107
mp-1193850,Ca2AlP2O9,-3.1024092986096936
mp-1227376,Ca2AlP3Pt7,-0.916953060109891
mp-1193801,Ca2AlPbF9,-3.7876315946699983
mp-1227802,Ca2AlPbOF8,-3.5492737869823086
mp-1078304,Ca2AlPd2,-0.777115027
mp-1078362,Ca2AlPt2,-1.0123664510000006
mvc-5272,Ca2AlSbO5,-2.8338295440277768
mp-1214098,Ca2AlSi2O7,-3.230803178229167
mvc-5761,Ca2AlSnO5,-2.897744459027777
mp-1093659,Ca2AlTl,1.4688728825
mvc-5113,Ca2AlVO5,-3.1830135240277766
mvc-5257,Ca2AlWO5,-2.769371454583332
mp-1093539,Ca2AlZn,1.4466170775000002
mp-1227383,Ca2AlZn16,-0.1664033649999998
mp-10106,Ca2As,-0.9432649416666667
mp-6929,Ca2As2O7,-2.526382507613637
mp-31010,Ca2As3,-0.8801400129999998
mp-557347,Ca2As3Pb3ClO12,-2.1715596122980947
mp-1202522,Ca2As4(Xe3F14)3,-1.8952209838592984
mp-581887,Ca2As4Xe5F34,-2.177513373676889
mp-867113,Ca2AsAu,-0.9734594950000002
mp-560595,Ca2AsClO4,-2.76444149822
mp-1203188,Ca2AsH4F13,-2.7929411561225
mp-28554,Ca2AsI,-1.4110156025
mp-29175,Ca2AuN,-0.9011856293449996
mp-1019560,Ca2B2O5,-3.257714143564814
mp-699451,Ca2B3(HO)13,-2.0414306197841943
mp-8895,Ca2B4Rh5,-0.6158230437878778
mp-554056,Ca2B5BrO9,-2.9904128829166665
mp-1182326,Ca2B5ClO10,-2.8597184291162963
mp-1214176,Ca2B5ClO9,-3.053957823696667
mp-24595,Ca2B5H2ClO10,-2.800350231066667
mp-1197116,Ca2B5H7O13,-2.4350307116638272
mp-1202231,Ca2B5O13,-2.268236639104167
mp-542455,Ca2B5Os3,-0.3719283473333334
mp-27657,Ca2B6O11,-3.08211677006579
mp-706291,Ca2B8H2O15,-2.861149506086049
mp-1214238,Ca2B8O15,-2.8544384558833324
mp-1095596,Ca2BAsO8,-2.1488160022222225
mp-554263,Ca2BClO3,-3.2229352983823816
mp-24266,Ca2BHN2,-1.1925011387577775
mp-23632,Ca2BN2Cl,-1.7562779432811109
mp-10233,Ca2BN2F,-2.0930346196027774
mp-1227534,Ca2Be2P2O9F,-3.1220476479203576
mp-1182571,Ca2Be4P3O20,-1.9585813831527097
mp-6208,Ca2BeSi2O7,-3.4059749736458342
mp-569535,Ca2Bi,-0.75506905
mp-677291,Ca2Bi10O17,-1.829510844698275
mp-28848,Ca2Bi2O5,-2.4046389447685184
mp-1214150,Ca2Bi3(PO4)3,-2.490969493071429
mp-1227595,Ca2Bi3Au10,-0.34479245333333297
mvc-15933,Ca2Bi3O8,-2.044922017692308
mp-1227392,Ca2Bi7,-0.17914127111111078
mp-557070,Ca2BiAsO6,-2.5556117352499994
mp-867799,Ca2BiAu,-0.8266677549999999
mvc-3973,Ca2BiSbO6,-2.4553641532499997
mvc-5011,Ca2BiWO6,-2.5624160717500004
mp-1207045,Ca2Br2F,-1.6529398882380004
mp-23009,Ca2BrN,-1.5110089368449997
mp-6246,Ca2CO3F2,-3.2528879521725
mp-1182620,Ca2Cd(BrO2)6,-0.5750124514285718
mp-1182722,Ca2Cd3(Cl5O9)2,-0.7447970171242431
mp-1093668,Ca2CdAg,1.0573128175000002
mp-1096182,Ca2CdAu,0.8367129649999998
mp-1183448,Ca2CdGa,-0.4001219125
mp-1093877,Ca2CdGe,1.15127065375
mp-720868,Ca2CdH24(ClO2)6,-1.560401147698667
mp-1183458,Ca2CdHg,-0.4437431774999998
mp-977453,Ca2CdIn,-0.4274034208333333
mp-1078908,Ca2CdP2,-0.9043987418571432
mp-1068286,Ca2CdPd2,-0.661405294
mp-1069824,Ca2CdPt2,-0.8316747419999999
mp-1097124,Ca2CdRh,1.164432955
mp-569267,Ca2CdSb2,-0.7952615545
mp-861940,Ca2CdSn,-0.5639115712499998
mp-755597,Ca2CeO4,-3.567410617142857
mp-1206596,Ca2Cl2F,-2.038540923542
mp-10923,Ca2Co12P7,-0.7014163752380953
mp-1195269,Ca2Co2O5,-2.2377072894444447
mvc-15986,Ca2Co3O8,-1.9186831396153845
mp-1147777,Ca2CoC(NO)2,-1.3949311363762489
mvc-5820,Ca2CoIrO6,-2.133870302249999
mvc-15272,Ca2CoN2,-0.7925887579519995
mp-31623,Ca2CoO3,-2.475743838125
mvc-13129,Ca2CoRhO6,-1.9618332137500003
mvc-4133,Ca2CoSbO6,-2.410770917749999
mp-1199429,Ca2CoSi2O7,-3.0966566275810186
mp-1227451,Ca2CoSi4NiO12,-2.9395885085000004
mp-558451,Ca2CoTeO6,-2.3813770787500004
mp-631696,Ca2CoW,1.00342934875
mp-19161,Ca2CoWO6,-2.636105215749999
mvc-11377,Ca2Cr2(SiO4)3,-2.9073327556578934
mvc-3982,Ca2Cr2O5,-2.6694763462499984
mvc-3578,Ca2Cr3O8,-2.529357030384616
mp-1045913,Ca2Cr9O13,-2.2767982071354176
mp-1214173,Ca2CrFeO5,-2.6710830445833333
mp-744193,Ca2CrH2I2O11,-1.811528642138333
mp-1214456,Ca2CrH3(IO5)2,-1.6211179331033319
mvc-5785,Ca2CrIrO6,-2.40757520875
mvc-15308,Ca2CrN2,-0.9300119779520004
mp-1029550,Ca2CrN3,-1.1449970391066664
mp-782653,Ca2CrO4,-2.8248820467857145
mvc-5219,Ca2CrO5,-2.38829428515625
mp-795621,Ca2CrO8,-1.609318901818182
mp-1189906,Ca2CrSbO6,-2.71547588125
mvc-5054,Ca2CrWO6,-2.7863022692499984
mp-12614,Ca2Cu,-0.11044781499999996
mp-545481,Ca2Cu(BrO)2,-2.1179721124999995
mp-1232312,Ca2Cu(CO)2,-1.1108058264285725
mp-23143,Ca2Cu(ClO)2,-2.4102658134314288
mp-1147535,Ca2Cu(SCl)2,-1.690901832806428
mp-1147536,Ca2Cu(SO)2,-1.9878266150892847
mp-772813,Ca2Cu2O5,-2.0784992170833334
mp-1182601,Ca2Cu2Si3(HO3)4,-2.3600713154121737
mp-28660,Ca2Cu6P5,-0.4646979935164829
mp-1045684,Ca2Cu9O13,-1.2500939746354167
mp-1227346,Ca2CuAg,-0.22286019375000032
mp-1202137,Ca2CuAs2(H2O5)2,-1.9900738785252627
mp-752783,Ca2CuB2(HO)12,-1.9051338340266668
mp-1147632,Ca2CuC(NO)2,-1.4870053263762495
mp-1227430,Ca2CuCO5,-2.3035882677777773
mp-709019,Ca2CuH6(CO2)6,-1.6014262468229632
mvc-5634,Ca2CuIrO6,-2.03604837525
mvc-13711,Ca2CuN2,-0.6169052159519992
mp-5869,Ca2CuO3,-2.540359066458333
mp-1095908,Ca2CuPd,1.0986362937499998
mp-1183482,Ca2CuRh,-0.2120088137499998
mvc-14832,Ca2CuRhO6,-1.8788913387500004
mp-1147722,Ca2CuSO2,-1.873993675260417
mvc-3984,Ca2CuSbO6,-2.296338785750001
mp-558663,Ca2CuTe4(ClO5)2,-1.9287621544221047
mvc-5004,Ca2CuWO6,-2.486823624750001
mp-1227760,Ca2Dy3Sb3O14,-2.9925141905681825
mp-1228042,Ca2Eu(CuO3)2,-2.332095496590909
mp-1227643,Ca2Eu(Zn3Ni2)3,0.0050842647222219105
mp-1227823,Ca2Eu2In3Ge4,-0.5050881122727272
mp-1214133,Ca2EuBeO5,-3.011311845416666
mp-684949,Ca2F,-1.9943979323966663
mp-1182314,Ca2Fe2(SiO3)5,-3.0199828618229163
mvc-12271,Ca2Fe2(SiO4)3,-2.743213180263158
mp-25750,Ca2Fe2O5,-2.5360810009722226
mp-743675,Ca2Fe2Si5HO15,-2.983216129294799
mvc-14038,Ca2Fe3O8,-2.1307097234615378
mp-743583,Ca2Fe3Sb(PO4)6,-2.6520533914682543
mp-1214297,Ca2Fe3Si3O14,-2.572005855795453
mp-1204736,Ca2Fe6Se9Cl4O27,-1.6656200131069536
mp-555029,Ca2Fe9O13,-2.022433363385417
mp-1214107,Ca2FeAs2F,-0.4795589151983339
mp-630511,Ca2FeClO3,-2.6906478488585717
mp-1095492,Ca2FeClO8,-0.9180062081883336
mp-1203339,Ca2FeCoO5,-2.3679440122222206
mp-1105354,Ca2FeCuSO3,-2.208374490351562
mp-1205964,Ca2FeH6,-0.630390897413333
mvc-5784,Ca2FeIrO6,-2.2978070757500006
mp-18783,Ca2FeMoO6,-2.64440578075
mp-28770,Ca2FeN2,-0.8644766949519991
mp-1105304,Ca2FeOsO6,-2.396250549250001
mp-780935,Ca2FeP2(H2O3)4,-2.2435537025298293
mp-31763,Ca2FeReO6,-2.6010366460000007
mvc-14247,Ca2FeRhO6,-2.1009777017500006
mp-24970,Ca2FeSbO6,-2.6083575967500012
mvc-5076,Ca2FeWO6,-2.7205670057500013
mp-695449,Ca2Ga2Bi(B2O7)2,-2.025400276485508
mp-1227514,Ca2Ga2GeO7,-2.6972868336458338
mp-16433,Ca2Ga2O5,-2.7813328529166674
mp-760729,Ca2Ga2Si(HO4)2,-2.688404428149333
mp-1227351,Ca2Ga7Ag,-0.3577724145000001
mp-1227436,Ca2Ga7Au,-0.4295440945000003
mp-1227320,Ca2GaAg,-0.3691946462499995
mp-1103164,Ca2GaClO8,-0.9369112315216672
mp-30472,Ca2GaCu2,-0.290231983
mp-648069,Ca2GaFeO5,-2.683051441527778
mp-1183450,Ca2GaHg,-0.4955170962499997
mp-1078280,Ca2GaPd2,-0.7803597629999999
mp-1078428,Ca2GaPt2,-0.9731809790000008
mp-1227300,Ca2GaSi,-0.5157901337499999
mp-1214106,Ca2GaSi2O7,-3.035256489479167
mp-1227330,Ca2GaSn,-0.5810312350000002
mp-1214310,Ca2Gd3Si3O13,-3.5412290748214286
mp-1227496,Ca2GdTaO6,-3.58781190075
mp-29273,Ca2Ge7O16,-2.3875804648
mp-560647,Ca2GeO4,-3.0059200349999995
mp-1078326,Ca2GePd2,-0.786658177999999
mp-1071127,Ca2GePd3,-0.7628341566666675
mp-1078483,Ca2GePt2,-0.9547148019999996
mp-540773,Ca2GeS4,-1.7788210866071437
mp-696490,Ca2H2S2O7,-2.3755808751242293
mp-698074,Ca2H2S2O9,-2.4955414207743325
mp-1018656,Ca2H3Br,-1.0054287318099997
mp-1207196,Ca2H6Os,-0.6970715624133332
mp-1079896,Ca2H6Ru,-0.7024823668577772