task_id,composition,formation_energy_per_atom
mp-11819,BaSnHg,-0.5771906466666664
mp-1096382,BaSnHg2,0.8055920037500001
mp-555954,BaSnHgS4,-1.236725997678571
mp-12181,BaSnS2,-1.6259278076562502
mp-1183370,BaSnS3,-1.4943127719375
mp-1227725,BaSr,0.003485194999999885
mp-1205807,BaSr(CoO3)2,-2.0560275267500003
mp-1206538,BaSr(CuO2)2,-1.999289399375
mp-24938,BaSr(FeO2)4,-2.2473813185714286
mp-1227735,BaSr(FeO3)2,-2.2916042077499994
mp-1227741,BaSr(MoO3)2,-2.58851078875
mp-1227843,BaSr(PbO3)2,-2.1397744782499997
mp-1227742,BaSr(SnO3)2,-2.6042788747500007
mp-1227818,BaSr11Al4(O4F)4,-3.436939334854445
mp-567486,BaSr2(PN2)6,-1.0849599936389107
mp-1227768,BaSr2(PO4)2,-3.313816408791209
mp-1227830,BaSr2(SnO3)3,-2.6251657090833334
mp-1183321,BaSr2Ca,0.021543898125000016
mp-1183392,BaSr2Eu,0.046347546249999816
mp-1178516,BaSr2I6,-1.7320012500000002
mp-1227817,BaSr2In2O6,-2.5506238931060605
mp-1019558,BaSr2Mg(SiO4)2,-3.3945356942857146
mp-19122,BaSr2Mn2(Si2O7)2,-3.118433104322609
mp-1227824,BaSr2Np,0.6948114178125002
mp-1227696,BaSr2ScInO6,-3.0032286528030308
mp-1227763,BaSr2Y2Cu2PtO10,-2.54800680125
mp-1183335,BaSr3,0.00774730499999987
mp-1227831,BaSr3(CoO3)4,-2.08320233925
mp-1227795,BaSr3(SnO3)4,-2.620167107249999
mp-1227715,BaSr3(ZrSe3)4,-1.60821398315625
mp-1227697,BaSr3Ca2(MoO6)2,-2.9071740464999984
mp-1076898,BaSr3Co2(CuO5)2,-2.0173609597222217
mp-1076528,BaSr3Co2(CuO6)2,-1.8533454065000001
mp-1228284,BaSr3Cu8(BO3)8,-2.2857891900757585
mp-754736,BaSr3I8,-1.70009055
mp-1227712,BaSr3Mn4O12,-2.475661200942
mp-984729,BaSr3O4,-2.983925451875
mp-1227694,BaSr3Pd2(OF)4,-2.903852882125715
mp-1227688,BaSr3Ti4O12,-3.5466603060833344
mp-1227728,BaSr3Yb2(ReO6)2,-2.976049546
mp-1227746,BaSr3Zr2Ti2O12,-3.579492147416668
mp-1227650,BaSr4,0.010443564000000191
mp-1227731,BaSr4(FeO2)5,-2.365419593624999
mp-1227727,BaSr4(FeO3)5,-2.3147891139500008
mp-1227722,BaSr4Cl10,-2.8919748668400005
mp-1227710,BaSr4Ti5O15,-3.551134008483331
mp-559427,BaSr4U3O14,-3.652795079431821
mp-1227908,BaSr6Fe3Bi3O16,-2.3931306694827583
mp-1076090,BaSr7(Fe2O5)4,-2.4795417609027766
mp-1099685,BaSr7(FeO3)8,-2.32225366475
mp-1099990,BaSr7Co4(CuO5)4,-2.022740719305555
mp-1076054,BaSr7Co4(CuO6)4,-1.8702417707500003
mp-1075982,BaSr7Co5(CuO8)3,-1.9092681032500007
mp-1100068,BaSr7Co5Cu3O20,-2.0667484229166666
mp-1076681,BaSr7Co6(CuO12)2,-1.94193873675
mp-1099862,BaSr7Fe6(CoO10)2,-2.3977278297222218
mp-1099936,BaSr7Fe6(CoO12)2,-2.242231275750001
mp-1076892,BaSr7Fe7CoO20,-2.442609505208332
mp-1075935,BaSr7Fe7CoO24,-2.2786685122500003
mp-1076181,BaSr7Mn2(Fe3O10)2,-2.4821141215116658
mp-1076408,BaSr7Mn2(FeO4)6,-2.3584164040480013
mp-1076473,BaSr7MnFe7O20,-2.4797978518322217
mp-1076592,BaSr7MnFe7O24,-2.334804154274
mp-1076493,BaSr7Ti5Mn3O20,-3.1425956526031467
mp-1099624,BaSr7Ti5Mn3O24,-3.1509340521553333
mp-1076196,BaSr7Ti6Mn2O20,-3.1838526470672215
mp-1075988,BaSr7Ti6Mn2O24,-3.2876068732980004
mp-1076193,BaSr7Ti7MnO20,-3.231258890767408
mp-1076377,BaSr7Ti7MnO24,-3.423448738440667
mp-1099682,BaSr7Ti8O20,-3.2743678279398147
mp-1099778,BaSr7Ti8O24,-3.557296758833333
mp-778499,BaSr7V8(Si2O7)8,-3.1452467174999987
mp-1093927,BaSrAg2,1.01871672
mp-1227989,BaSrAl20(CuO17)2,-3.2753649945258623
mp-1214332,BaSrBi3,-0.7345084225000005
mp-1227677,BaSrBiSbO6,-2.4673320737500006
mp-1093566,BaSrCa2,1.45948601375
mp-1227705,BaSrCaMg(SiO4)2,-3.3827378576785714
mp-1227642,BaSrCaMoO6,-2.9190173665000017
mp-1227701,BaSrCaWO6,-3.0345622215
mp-1095881,BaSrCd2,1.0144872325
mp-1227676,BaSrCoWO6,-2.51783870775
mp-677647,BaSrCuCO4,-1.2496826854687502
mp-1227765,BaSrErCu3O7,-2.222233446442308
mp-1183344,BaSrEu2,0.06565328500000067
mp-1227782,BaSrEuCu3O7,-2.0628849856730764
mp-1227665,BaSrGa4,-0.4583231616666665
mp-1227645,BaSrHf2O6,-3.8011794927499993
mp-1183305,BaSrHg2,-0.5147887924999999
mp-754852,BaSrI4,-1.7348017116666667
mp-1096037,BaSrIn2,1.1795640808333332
mp-1227956,BaSrLa4Be2O10,-3.4843184501388884
mp-1227776,BaSrLa4O8,-3.5916339314285715
mp-1227371,BaSrLaBiO6,-2.723477944250001
mp-1097264,BaSrLi2,1.219823655
mp-1227532,BaSrLuBiO6,-2.8814557592500014
mp-1093634,BaSrMg2,1.36401281
mp-1038708,BaSrMg30O32,-2.94548555421875
mp-1227482,BaSrMgSi2O7,-3.397393201145833
mp-1227325,BaSrMgTeO6,-2.7003150357500005
mp-1227368,BaSrMgWO6,-2.96765631975
mp-1227545,BaSrMn2Al9PbO20,-3.112121036085881
mp-1227420,BaSrMn2O6,-2.481455298942
mp-1227306,BaSrN,-0.5930494241266663
mp-1227498,BaSrNdCu3O7,-2.1787835397115383
mp-1227445,BaSrNdTlCu2O7,-2.20864706625
mp-1227411,BaSrNiWO6,-2.514128214750001
mp-1227311,BaSrO2,-2.9375769106250003
mp-1227928,BaSrPb6,-0.3620791649999997
mp-1227333,BaSrPd(OF)2,-2.8801019464114286
mp-1227495,BaSrPdF6,-3.3134163841266666
mp-1227458,BaSrPrCu3O7,-2.168630501442308
mp-1227347,BaSrSi4,-0.35032283666666625
mp-1227610,BaSrSi4(NO)4,-2.3538603135371434
mp-1227431,BaSrSm(CuO2)3,-2.233872665
mp-1227474,BaSrSmCu3O7,-2.1947763185576923
mp-962062,BaSrSn,-0.20600247833333304
mp-559151,BaSrTa2O7,-3.507677979886364
mp-1227336,BaSrTi2O6,-3.5295906620833337
mp-1183386,BaSrTl2,-0.4084045450000002
mp-1227667,BaSrV4(CuO4)4,-2.1136812040384614
mp-1227604,BaSrV4(NiO4)4,-2.186107301153847
mp-1227433,BaSrY(CuO2)4,-2.052873808
mp-1227594,BaSrY4(CuO5)2,-3.066104935416667
mp-1227606,BaSrYTlCu2O7,-2.237158876442308
mp-980191,BaSrYb2,0.02808565499999993
mp-1227369,BaSrYbReO6,-2.9854807825000007
mp-1097100,BaSrZn2,1.2298569924999998
mp-1227377,BaSrZnWO6,-2.6592018622500007
mp-23611,BaTa2Bi2O9,-2.800449580803572
mp-561103,BaTa2O6,-3.459748066944445
mp-769399,BaTa4O11,-3.4139368842968745
mp-1189316,BaTa4O14,-2.5877968719736844
mp-769349,BaTa6O16,-3.3995704773913027
mp-631570,BaTaB,1.5115958111111116
mp-1042208,BaTaCuO5,-2.43010248078125
mp-559835,BaTaF7,-3.8872885787033336
mp-1227303,BaTaNO2,-2.648259332976001
mp-754678,BaTaO3,-3.28346793075
mp-4001,BaTaS3,-1.8863676524375
mp-1078588,BaTaSe3,-1.2821937691562504
mp-1214377,BaTb2(MoO4)4,-2.707204865289855
mp-565444,BaTb2Mn2O7,-3.031892912694721
mp-18258,BaTb2O4,-3.6802022302380952
mp-9760,BaTb2PdO5,-3.0707385364351847
mp-18084,BaTb2ZnO5,-3.2655710508796285
mp-1095340,BaTbAgS3,-1.9456950075868056
mp-1095278,BaTbAgTe3,-1.2599092722222227
mp-1214316,BaTbCuBO5,-2.8843836095833333
mp-1095403,BaTbCuTe3,-1.244151608888889
mp-622591,BaTbF6,-3.828661242246667
mp-1227304,BaTbFe2O5,-2.6723923399537046
mp-1214367,BaTbFe4O7,-2.2742548174679493
mp-1106241,BaTbMn2O5,-2.8100601229448148
mp-565720,BaTbMn2O6,-2.706706765775333
mp-20129,BaTbO3,-3.1423311519166672
mp-555174,BaTcO3,-2.4902231104166663
mp-2150,BaTe2,-1.1902756750000003
mp-29177,BaTe2F10,-2.9283609139923072
mp-1182595,BaTe2Mo2(HO6)2,-1.9691759197231584
mp-8234,BaTe3,-0.8833886312500003
mp-1197650,BaTe3H15(CN)3,-0.4575380364076006
mp-1195118,BaTe3O7,-1.92045715625
mp-1195016,BaTe4O9,-1.837704598125
mp-556778,BaTeF6,-3.1627051552675005
mp-1214721,BaTeH3(S2O3)2,-1.0717378473073331
mp-5431,BaTeO3,-2.370074308750001
mp-754967,BaTeO4,-2.265507610416666
mp-27499,BaTeS3,-1.2879958209374998
mp-1193611,BaTeS3O2,-1.3254966653124995
mp-1182586,BaTeS4O9,-1.298119147833333
mp-19666,BaTeW2O9,-2.271214688942308
mp-1192105,BaTh(PO4)2,-3.4404813095238094
mp-1195483,BaTh2S5,-2.488997130664063
mp-570615,BaThBr6,-1.867930330625
mp-1189614,BaThO3,-3.79051064825
mp-1095218,BaThTe4,-1.2346425258333331
mp-11659,BaTi(BO3)2,-3.2388480217499995
mp-1214320,BaTi(GeO3)3,-2.6571938394940484
mp-1227524,BaTi(IO3)6,-1.367806049583333
mp-1198551,BaTi(S2O7)3,-2.25883159930316
mp-6661,BaTi(SiO3)3,-3.4019005805654765
mp-766314,BaTi10O20,-3.494002050537633
mp-19502,BaTi18Mn3O38,-3.3499363855063318
mp-17997,BaTi2(P2O7)2,-3.003704556876418
mp-1018735,BaTi2As2O,-1.7024952757638891
mp-1070808,BaTi2Bi2O,-1.3230915390972218
mp-1227638,BaTi2Fe4O11,-2.5738906442824065
mp-558159,BaTi2O5,-3.547284111197916
mp-1070806,BaTi2Sb2O,-1.488261935763889
mp-1048072,BaTi2TlO6,-2.638250905583333
mp-1048108,BaTi4AlO7,-2.9535048319551294
mp-1227554,BaTi4Bi4O15,-2.700941328142361
mp-3175,BaTi4O9,-3.5300843941369044
mp-1046922,BaTi4ZnO8,-2.9315599929761893
mp-27790,BaTi5O11,-3.529734637328432
mp-1227853,BaTi6O11,-3.418746387430553
mp-757206,BaTi6O12,-3.4894133157894736
mp-504457,BaTi6O13,-3.5223868028125014
mp-757266,BaTi7O14,-3.4972043957575765
mp-759489,BaTi8O16,-3.5011309245333324
mvc-7210,BaTiAlCuO5,-2.484759641435186
mp-1195143,BaTiCu4P4O17,-2.41180454449956
mp-8291,BaTiF6,-3.9969395779758337
mp-1202235,BaTiFe2(SiO5)2,-2.8468133458854163
mp-1227513,BaTiFe3(BiO4)3,-2.179804522833335
mp-1200625,BaTiMn2(SiO5)2,-2.9218799488179164
mp-1227378,BaTiMnBiO6,-2.5102603110126664
mp-1029374,BaTiN2,-1.0143787028566669
mp-16915,BaTiOF4,-3.9492348560966666
mp-7073,BaTiS3,-2.0470044387708337
mp-1079893,BaTiSe3,-1.4849901624895836
mp-1041319,BaTiZnF7,-3.504146455999667
mp-1048100,BaTl(BiO3)2,-1.5599270342500011
mp-1046815,BaTl(CoO3)2,-1.2926395722499997
mp-1047046,BaTl(MoO3)2,-1.7913943232499996
mp-1046932,BaTl(NiO3)2,-0.9014837447499999
mp-1214441,BaTl(PO3)3,-2.737298122334184
mp-1048032,BaTl(SbO3)2,-1.7460614467500002
mp-1048083,BaTl(SnO3)2,-1.6689266337500002
mp-1046939,BaTl(WO3)2,-1.7947706897499998
mp-30434,BaTl2,-0.3850749383333338
mp-754897,BaTl2O4,-1.682334213928571
mp-1097529,BaTl2Pb,1.16767367
mp-1091391,BaTl4,-0.2529812130000003
mp-1182240,BaTlCu3Se4,-0.2319451554861113
mvc-11834,BaTlCuO4,-1.4805007235714278
mp-865984,BaTlHg2,-0.3958109437499999
mp-1183393,BaTlO3,-1.7178909097499997
mp-1182629,BaTlP3O11,-2.2630659028236604
mp-1046784,BaTlV2O6,-2.041333357250001
mp-561195,BaTlVO4,-2.53035728
mp-1214443,BaTm2(MoO4)4,-2.7104908208695657
mp-541418,BaTm2CoO5,-3.226002663750001
mp-22202,BaTm2CuO5,-3.1332438990277773
mp-7693,BaTm2F8,-4.451874308138182
mp-542336,BaTm2NiO5,-3.1279136543055555
mp-754599,BaTm2O4,-3.7519810257142856
mp-6250,BaTm2ZnO5,-3.3108032765277784
mp-1203002,BaTmCo4O7,-2.144529131634616
mp-1103591,BaTmFe4O7,-2.343417217596155
mp-1205946,BaTmFeCuO5,-2.557581518472224
mp-1183394,BaTmO3,-3.2119777227500017
mp-1194605,BaU(PS4)2,-1.3463677607738105
mp-1198641,BaU(SeO4)2,-1.858209289557292
mp-555561,BaU(SiO4)2,-3.4665840212499988
mp-1182767,BaU11(GeO19)2,-3.4197673495673078
mp-1202924,BaU2(AsO11)2,-1.3588905371296287
mp-27649,BaU2O7,-3.650301372875
mp-1201878,BaU2P2O19,-1.9382706826264868
mp-1199878,BaU2S5,-2.0131594050390635
mp-1195370,BaU2Se5,-1.3908439253710938
mp-1105536,BaU2Te5,-0.94623379
mp-1215083,BaU2V2(HO3)4,-2.1146013314038106
mp-1227825,BaU2V2O12,-3.1378125320588253
mp-574430,BaUI6,-1.19740294125
mp-35730,BaUO3,-3.48001388775
mp-5611,BaUO4,-3.681123124999999
mp-3601,BaUS3,-2.1124904779375
mp-1095338,BaUTe4,-0.9415145691666659
mp-1194611,BaUTe6,-0.6740226175000004
mp-560110,BaUTiO6,-3.6350466112962967
mp-566358,BaV(AsO4)2,-2.262425208125
mp-1199112,BaV(AsO5)2,-1.7763901399999986
mp-19458,BaV10O15,-2.5332627595673083
mp-769419,BaV10O17,-2.5916363354017853
mp-638002,BaV13O18,-2.4343695166406265
mp-1227827,BaV2(AsO5)2,-2.296569294333333
mp-19504,BaV2(CoO4)2,-2.3141392575000004
mp-567035,BaV2(CuO4)2,-2.1266213273076917
mp-18723,BaV2(NiO4)2,-2.188854249230769
mp-566356,BaV2(P2O7)2,-2.8653409050510197
mp-19512,BaV2(PO5)2,-2.829694659785714
mp-1182505,BaV2(PO7)2,-1.893944615357143
mp-25791,BaV2CdO7,-2.5069418185227264
mp-1192702,BaV2Cu(AgO4)2,-1.9204315225
mp-561453,BaV2CuO7,-2.3724556330681814
mp-735536,BaV2H2(Se2O7)2,-1.815571373005
mp-1195240,BaV2H2Se2O11,-1.9917677503154168
mp-1201280,BaV2O7,-2.237452074874999
mp-1198793,BaV2P4O17,-2.40993644999256
mp-566637,BaV2TeO8,-2.412590675
mp-1196637,BaV2ZnO7,-2.5475153751136355
mp-32499,BaV3O8,-2.6448229575
mp-579757,BaV4As4O19,-2.164896359955357
mvc-1332,BaV4O7,-2.307122723229167
mp-1041271,BaV4O8,-2.392108070769231
mp-18910,BaV4O9,-2.636666858303572
mp-1044331,BaV4ZnO8,-2.313865485357143
mp-610232,BaV6O11,-2.6354088471527786
mp-767994,BaV8O16,-2.5837471904000004
mp-767913,BaV8O21,-2.415742685708333
mp-541545,BaVAsO6,-2.469428264444444
mp-1214298,BaVCdF7,-3.3171109235830003
mp-699566,BaVCdP2O9,-2.7378710516454094
mp-566321,BaVClO3,-2.775923445751668
mp-565705,BaVCu4P4O17,-2.2911491944378306
mp-1017465,BaVO3,-2.7508280027500005
mp-566751,BaVOF4,-3.4636582969300003
mp-25157,BaVPO6,-2.8871237135714285
mp-3451,BaVS3,-1.7683878994375006
mp-1227466,BaVSe2S,-1.3743012492500015
mp-676597,BaVSe3,-1.2123996091562503
mp-1227435,BaVSeS2,-1.5496233453437505
mp-565626,BaVSi2O7,-3.1229939044318176
mp-1047908,BaVZnF7,-3.3493627970830007
mp-554925,BaVZnP2O9,-2.7771975067346943
mp-1048515,BaW4O7,-1.243631335729166
mp-690123,BaW6O19,-1.9642070432211527
mp-1047945,BaWF7,-3.2554042400922225
mp-989622,BaWN3,-0.8345222344279989
mp-1214266,BaWO2,-1.5418311562500016
mp-1183395,BaWO3,-2.46538506475
mp-19048,BaWO4,-2.731593769166666
mp-646218,BaY(CoO2)4,-2.038739860446429
mp-1214357,BaY2(MoO4)4,-2.698534571956521
mp-754116,BaY2Br8,-1.903176395
mp-769044,BaY2Cl8,-2.69451122237091
mp-622482,BaY2CoO5,-3.1622840293055563
mp-542733,BaY2CuO5,-3.066874071527777
mp-768240,BaY2F8,-4.4063229245018185
mp-3952,BaY2O4,-3.6713666846428574
mp-9656,BaY2PdO5,-3.048454634583332
mp-1193084,BaY2Si2O7F2,-3.784387355437858
mp-560478,BaY2Si3O10,-3.61005595734375
mp-6121,BaY2ZnO5,-3.248637717361111
mp-753942,BaY3Br11,-1.8829711136666671
mp-769003,BaY3Cl11,-2.7021888083906664
mp-752674,BaY3F11,-4.375687944539334
mp-769070,BaY4Cl14,-2.674214429638948
mp-1019546,BaY4Si5O17,-3.6397811578240753
mp-554918,BaY6Si3B6(O12F)2,-3.5289113938661933
mp-6647,BaYAgSe3,-1.5495865859635416
mp-10337,BaYAgTe3,-1.2645008941666669
mp-778355,BaYBr5,-1.9964734080357136
mp-756564,BaYCl5,-2.7888445959
mp-1182125,BaYCo2O5,-2.4179104545833323
mp-1192423,BaYCo4O7,-2.1176024314423074
mp-1227472,BaYCoCuO5,-2.376231809583335
mp-1048386,BaYCr4O7,-2.3130392841346157
mp-1042475,BaYCrCuO5,-2.612502536249999
mp-1042162,BaYCu2O5,-2.252404972916666
mp-1182242,BaYCu3Se4,-0.7588623049305548
mp-1048115,BaYCu4O7,-1.7466961033653847
mp-1042153,BaYCuAgO5,-2.071146201805555
mp-1042214,BaYCuBiO5,-2.3842326001388887
mp-1042500,BaYCuMoO5,-2.460049631805555
mvc-7677,BaYCuNiO5,-2.2096215273611097
mp-1103275,BaYCuS3,-2.0409700078645834
mp-1042151,BaYCuSbO5,-2.38713706125
mp-1101801,BaYCuSe3,-1.5840286634635419
mp-1042137,BaYCuSnO5,-2.507672824583333
mp-10336,BaYCuTe3,-1.2504022841666675
mp-1042479,BaYCuWO5,-2.353810251805556
mp-752675,BaYF5,-4.362927215135715
mp-542205,BaYFe2O5,-2.6664115173611123
mp-1048387,BaYFe4O7,-2.34505494221154
mp-505589,BaYFeCuO5,-2.536154797361112
mp-1195207,BaYFeO4,-2.999754126964288
mp-772077,BaYI5,-1.526692121607143
mp-1035885,BaYMg14O16,-2.832800241875
mp-1037184,BaYMg30O32,-2.9537501409375
mp-1099269,BaYMg6,0.1044658100000002
mp-1182186,BaYMn2O5,-2.7989025797966667
mp-565380,BaYMn2O6,-2.6972278329419987
mp-1048366,BaYMn4O7,-2.4761089494299995
mp-42020,BaYMnCoO5,-2.627030709134444
mp-1042473,BaYMnCuO5,-2.547814198578888
mp-1048406,BaYNi4O7,-1.6670324529807696
mp-631495,BaYSc,0.8300088366666666
mp-11670,BaYSi4N7,-1.4520497043584617
mp-1048164,BaYSn4O7,-2.1945934706730768
mp-1048118,BaYTi4O7,-3.0828836469551275
mvc-7203,BaYTiCuO5,-2.9973365114351846
mp-1048392,BaYV4O7,-2.4766898556730768
mp-1042482,BaYVCuO5,-2.6844633929166664
mp-1048425,BaYW4O7,-1.5867381572115389
mp-1227396,BaYZn3CoO7,-2.307350197980769
mp-1192369,BaYZn3GaO7,-2.546649942211538
mp-704669,BaYb2(MoO4)4,-2.4490802645652168
mp-541597,BaYb2CoO5,-2.78794064375
mp-6323,BaYb2CuO5,-2.629310726527778
mp-614986,BaYb2NiO5,-2.5527895379166665
mp-754422,BaYb2O4,-2.8100108639285706
mp-1202951,BaYb2Si3O10,-3.23287271265625
mp-1183398,BaYb3,0.023909717500000042
mp-1201554,BaYb6Si7O24,-3.166978908026316
mp-684785,BaYbAl2Si2N5O2,-1.4165878599538455
mp-684968,BaYbAl2SiN5O2,-1.3484597378666667
mp-1214205,BaYbAl3SiN4O3,-2.199494805251538
mp-865143,BaYbCdSb2,-0.883658029
mp-542705,BaYbCo4O7,-1.98761290201923
mp-1214224,BaYbCuTe3,-1.1145930283333338
mp-1104197,BaYbFe4O7,-2.273006782980769
mp-1183406,BaYbO3,-2.4756895727500003
mp-6778,BaYbSi4N7,-1.2792956085892304
mp-571479,BaYbSn3,-0.6243413762500001
mp-902,BaZn,-0.16404213749999985
mp-1046965,BaZn(AgO2)4,-0.7130401546428564
mp-1046956,BaZn(BiO2)4,-1.6554595910714285
mp-1046963,BaZn(CuO2)4,-1.1781444960714285
mp-1044403,BaZn(FeO2)4,-1.9605737453571417
mp-1044491,BaZn(MoO2)4,-1.6182095525
mp-1044577,BaZn(NiO2)4,-1.044890151071429
mp-1046970,BaZn(SbO2)4,-1.704770799642857
mp-1205399,BaZn(SeO3)2,-1.9283908509687504
mp-1046984,BaZn(SnO2)4,-1.8834494067857144
mp-1044892,BaZn(WO2)4,-1.3046363710714286
mp-672225,BaZn13,-0.16154099178571432
mp-30435,BaZn2,-0.18541876333333315
mp-15739,BaZn2(AsO4)2,-2.146660038846153
mp-557974,BaZn2(BO3)2,-2.6204134637121217
mp-6089,BaZn2(PO4)2,-2.743004888214286
mp-758313,BaZn2As3HO11,-1.9693856283261109
mp-1214271,BaZn2Cu2As3,-0.3982548924999998
mp-707945,BaZn2H16O11,-1.033166222555666
mp-560441,BaZn2Si2O7,-2.8685949482291675
mp-723480,BaZn3P4(H7O9)2,-1.7284541279187864
mp-1041309,BaZnAgF7,-2.578522475083
mp-554083,BaZnAs2O7,-2.162826603295456
mp-1079320,BaZnAsF,-1.9948298677974998
mp-1077866,BaZnBO3F,-2.9443444502295235
mp-30427,BaZnBi2,-0.4741070937499998
mp-1041314,BaZnBiF7,-3.148426172583
mp-11166,BaZnCO3F2,-2.7241056949850004
mp-23373,BaZnCl4,-2.25148031884
mp-1047922,BaZnCoF7,-2.967532403833
mp-1044490,BaZnCr4O8,-1.990241090357143
mp-1047910,BaZnCrF7,-3.289833924333
mp-1041302,BaZnCuF7,-2.7537926185829997
mp-3881,BaZnF4,-3.4094893399599986
mp-1227632,BaZnFe6O11,-1.8234852009868432
mp-567135,BaZnFeF7,-3.1826802628329998
mp-11818,BaZnGe,-0.4887052299999996
mp-757722,BaZnGeO4,-2.438906580238096
mp-1227349,BaZnIn3,-0.345890425
mp-1047902,BaZnMoF7,-3.193144796833
mp-1047950,BaZnNiF7,-2.7752930703330003
mp-4236,BaZnO2,-2.373504753541667
mp-1183405,BaZnO3,-1.85462532775
mp-1182697,BaZnO5,-0.8500332768452381
mp-14345,BaZnP2O7,-2.8531199939123373
mp-510311,BaZnPb,-0.4080540483333331
mp-1202499,BaZnRu5O11,-1.6387452162499996
mp-548469,BaZnSO,-2.122380335078124
mp-1205765,BaZnSb2,-0.5889492324999996
mp-1041326,BaZnSbF7,-3.104106197583
mp-31147,BaZnSi,-0.3715863066666665
mp-561305,BaZnSiO4,-2.954358690952382
mp-31148,BaZnSn,-0.5242452316666665
mp-1227443,BaZnSn2,-0.31345311124999986
mp-1041328,BaZnSnF7,-3.069634587833
mp-13593,BaZnSnS4,-1.4234679558928574
mp-1191811,BaZnTe2O7,-1.9922617121590909
mp-558504,BaZnTeCl2O3,-2.1316949455025
mp-1047930,BaZnWF7,-3.072601620083
mp-559348,BaZr(BO3)2,-3.3499669310833324
mp-556139,BaZr(PO4)2,-3.3050576870238086
mp-1214228,BaZr(SiO3)3,-3.4811865886607163
mp-505400,BaZr2F10,-4.115726021684615
mp-560308,BaZr4(PO4)6,-3.2786486040816327
mp-1227880,BaZr5Pb4O15,-3.0186951783499985
mp-8232,BaZrF6,-4.1512544421425
mp-3104,BaZrN2,-1.4350097174400007
mp-631542,BaZrNi,0.6776780233333325
mp-3834,BaZrO3,-3.6546831467500014
mp-1096801,BaZrP2,-0.8693421035714293
mp-540771,BaZrS3,-2.2068500789375007
mp-998427,BaZrSe3,-1.6394288306562501
mp-27748,Be(B3H7)2,-0.18203349848476166
mp-722237,Be(B3H8)2,-0.08173132947478262
mp-569299,Be(BC)2,-0.09556673316666746
mp-27344,Be(BH4)2,-0.2251383517993937
mp-1199247,Be(BO2)4,-2.5024576660897444
mp-772198,Be(Bi3O5)4,-1.6354666906060602
mp-35687,Be(CN)2,-0.2319595684519996
mp-770957,Be(CoO2)2,-1.8300457685714289
mp-770566,Be(FeO2)2,-2.2077393196428567
mp-757917,Be(GaO2)2,-2.520487802380952
mp-28018,Be(H2N)2,-0.7660872997128568
mp-697136,Be(HO)2,-2.069681699448
mp-30141,Be(N3O7)2,-0.9812613267514284
mp-1182195,Be(NF2)2,-0.8498270645742849
mp-1019545,Be(PN2)2,-0.9089516486389104
mp-27588,Be(PO3)2,-2.7969429826984133
mp-12665,Be12Ag,0.11208376230769254
mp-1227693,Be12Al8Si24O73,-3.236298833429487
mp-12664,Be12Au,0.07579938461538441
mp-1104193,Be12Co,-0.03752688769230708
mp-1590,Be12Cr,-0.05715036615384642
mp-1104104,Be12Fe,-0.04241466461538415
mp-1475,Be12Mo,-0.1214628299999998
mp-568912,Be12Nb,-0.14768341538461546
mp-12666,Be12Pd,-0.06186211538461514
mp-571438,Be12V,-0.1024991669230771
mp-568827,Be12W,-0.09770274538461568
mp-1214523,Be13Mo,0.9130856517857142
mp-1215037,Be13Re,0.76804239
mp-13608,Be13Sb,0.16139487678571385
mp-1214511,Be13W,0.9566333974999998
mp-1214241,Be15(Nb3Cu4)2,-0.18799049775862028
mp-1214229,Be15(Nb3Ni4)2,-0.3795501843103456
mp-30441,Be17Nb2,-0.1941953592105265
mp-1199166,Be17Os3,-0.26892696100000035
mp-30443,Be17Ru3,-0.2740814963749997
mp-30440,Be22Mo,-0.048097511521739335
mp-30444,Be22W,-0.03771530108695703