task_id,composition,formation_energy_per_atom
mp-744605,CoPH4ClO3,-1.3449704649882854
mp-743840,CoPH6NO5,-1.5455300533923466
mp-743618,CoPH6O6F,-1.7970222465035242
mp-772257,CoPHO5,-1.783213687126607
mp-1214243,CoPNO10,-0.5332132316940652
mp-850481,CoPO4,-2.1420782903571416
mp-25473,CoPO4F,-1.97573066761898
mp-1018673,CoPPd,-0.5974843307142853
mp-676437,CoPS3,-0.6102967648660709
mp-10368,CoPSe,-0.4562519960788691
mp-1102504,CoPW,-0.4437466673809531
mp-24859,CoPb2WO6,-1.77039033075
mp-1183900,CoPb3,0.6168244724999998
mp-1226001,CoPd,0.1032286649999996
mp-1183847,CoPd3,0.05145798125000045
mp-1215057,CoPdN5Cl5O,-0.11174918976538514
mp-18919,CoPdO2,-1.1042762331250011
mp-949,CoPt,-0.08802758500000074
mp-922,CoPt3,-0.06348843999999954
mp-1214966,CoPtBr4N5Cl,0.3776847954033335
mp-556810,CoPtF6,-1.9729224508925007
mp-19210,CoPtO2,-1.123238395625
mp-1225995,CoRe,0.07183713124999969
mp-1205702,CoRe(PbO3)2,-1.6281687274999996
mp-765839,CoRe2(H2O3)4,-1.6922383790852178
mp-1226126,CoRe2(MoS4)2,-0.9991615598076934
mp-865960,CoRe3,-0.060400385624999935
mp-21464,CoReB,-0.2750359430555551
mp-631310,CoReGe2,0.5212182431249994
mp-31596,CoReO4,-1.6922274954166667
mp-1226026,CoRh,0.07797069000000079
mp-1183704,CoRh3,0.09730201999999988
mp-1183715,CoRhO3,-0.4804264107499989
mp-1226106,CoRhS4,-0.8080767043750002
mp-1225997,CoRu,0.15424182249999951
mp-1226040,CoRuS4,-0.8726939043750015
mp-1147746,CoS,-0.7508517270312502
mp-2070,CoS2,-0.7866166910416675
mp-1237291,CoS2(NO7)2,-0.6621848955465781
mp-1199610,CoS2N5O9,-0.019117067427941947
mp-1202862,CoS3N3O2,-0.3999263815919439
mp-1181832,CoSI,-0.2869215113541668
mp-1198398,CoSO10,-0.3315417565885414
mp-19379,CoSO4,-1.8807835415104168
mp-1213843,CoSO8,-0.6626276636562501
mp-2644,CoSb,-0.15884203499999927
mp-648390,CoSb(CO)3,-0.7271280306250008
mp-775019,CoSb(PO4)2,-2.2210930770238098
mp-561493,CoSb2Br2O3,-1.3515784985937502
mp-1042609,CoSb2O7,-1.4121248122499992
mp-629319,CoSb2S2(OF3)4,-2.3807573574954763
mp-775217,CoSb3(PO4)6,-2.295212647878152
mp-1195576,CoSb3XeF23,-2.170121932138214
mp-1183681,CoSbO3,-1.0990382557499998
mp-765886,CoSbO4,-1.5720688741666666
mp-1206379,CoSbRh2,-0.19063854625000065
mp-604908,CoSe,-0.26842261179687465
mp-20862,CoSe2,-0.2912408273958332
mp-18973,CoSe2O5,-1.2988384094921877
mp-1213819,CoSeClO6,-0.3846710299281947
mp-1198343,CoSeO3,-1.3443426364687512
mp-504678,CoSeO4,-1.2620341472656254
mp-1213781,CoSeO5,-0.9734626678348216
mp-1226030,CoSeS,-0.5126902117187502
mp-7577,CoSi,-0.6146865950000002
mp-2379,CoSi2,-0.4711005733333333
mp-1226006,CoSi4Ni,-0.4413273183333336
mp-1226011,CoSi4Ni3,-0.5188608075000003
mp-704362,CoSiC4Cl3O4,-1.1041604265215388
mp-25485,CoSiH12(OF)6,-1.896978099156923
mp-1226108,CoSiMo,-0.34642178999999845
mp-1193831,CoSiN5ClF6,-1.4648610058785714
mp-699575,CoSiO3,-2.4883532285000003
mp-633897,CoSiO4,-2.01262897875
mp-1226107,CoSiW,-0.3028921000000011
mp-20536,CoSn,-0.10043456416666648
mp-863848,CoSn(PO4)2,-2.340522826607143
mp-20155,CoSn2,-0.06520922333333286
mp-1105112,CoSn2(OF)6,-1.2429440863093333
mp-601403,CoSn2H12(OF)6,-1.7716385499288885
mp-1183777,CoSn3,-0.054345445624999655
mp-761975,CoSn3(PO4)4,-2.320036154732142
mp-1215120,CoSn3F6,-1.1365264342140002
mp-561708,CoSnC4Cl3O4,-1.036471700367692
mp-561501,CoSnF6,-2.6825141327675
mp-505208,CoSnH12(OF)6,-1.771702722041539
mp-1205069,CoSnN6Cl5,0.16544960457077013
mp-761574,CoSnO3,-1.7813070107500004
mp-1018085,CoSnRh2,-0.21106140125000028
mp-1225992,CoTc,0.09309586500000044
mp-865733,CoTc3,-0.05227135999999888
mp-788,CoTe,-0.05730764499999985
mp-1078906,CoTe(PbO3)2,-1.49972079275
mp-1009641,CoTe2,-0.198367966666666
mp-781595,CoTe2O5,-1.49564135046875
mp-1042498,CoTe2O7,-1.2085919956249995
mp-1198962,CoTe6O13,-1.4561374815625
mp-1077563,CoTeMo,0.4352569683333331
mp-560750,CoTeMoO6,-1.7314507691666658
mp-19113,CoTeO3,-1.4376283937499998
mp-1226075,CoTeO4,-1.4818652808333337
mp-1225994,CoTeSe,-0.2275041995312499
mp-1007819,CoW,0.31619358999999925
mp-1042536,CoW2O7,-1.8678198411249995
mp-1183680,CoW3,0.26036028000000044
mp-19092,CoWO4,-1.9373251966666665
mp-557056,Cr(AgO2)2,-1.132079024642857
mp-567148,Cr(B3H8)2,-0.11972503338782613
mp-1206931,Cr(BMo)2,-0.4377846706666659
mp-698567,Cr(Bi7O12)2,-1.6858771682051283
mp-1182495,Cr(C5O2)2,0.5316698608333336
mp-1198466,Cr(C7O2)3,0.5327273876339303
mp-647812,Cr(CO)6,-0.869489735961539
mp-1079620,Cr(ClO)2,-1.2611111768039998
mp-1104833,Cr(ClO2)2,-0.7099790702171417
mp-1181814,Cr(ClO2)3,-0.6936055792279994
mp-765852,Cr(CoO3)2,-1.3593676697222226
mp-1226377,Cr(Fe2Sb5)2,0.0027175610000000467
mp-1226104,Cr(FeAs3)2,-0.19721120555555494
mp-568349,Cr(FeSe2)2,-0.2908719863392863
mp-1237584,Cr(FeTe2)2,-0.02899419142857137
mp-985304,Cr(GaS2)2,-0.9833561194642868
mvc-8359,Cr(GeO3)2,-1.9769111569444449
mp-677093,Cr(InS2)2,-0.9296716611309525
mp-1103734,Cr(Mo3Se4)2,-0.4275246679166666
mp-542188,Cr(MoS2)2,-1.052448812678571
mp-1181843,Cr(NO2)2,-0.5177688356799999
mp-1178448,Cr(NO3)5,-0.93867491828492
mp-606382,Cr(OF)2,-1.8766002409760003
mp-1226389,Cr(OF)3,-1.48654536176
mp-772684,Cr(PO3)2,-2.5670109435317463
mp-566845,Cr(PO3)3,-2.6313267238598885
mp-540424,Cr(PO3)4,-2.4648843428571428
mp-705019,Cr(PO3)5,-2.361691834022108
mp-697815,Cr(PO4)2,-2.1222398772077926
mp-675980,Cr(PS3)3,-0.5899551631146982
mp-1226109,Cr(ReO3)2,-2.025084253611112
mp-1077996,Cr(RhSe2)2,-0.3904970949107148
mp-851282,Cr(SO4)2,-1.9189493476704549
mp-769853,Cr(SbO3)2,-1.9722542213888887
mp-780779,Cr(Si2O5)2,-2.9440744941666663
mp-25502,Cr(SiO3)2,-2.7632319102777765
mp-1077939,Cr(Te2Rh)2,-0.3156639328571436
mp-1041693,Cr(WO4)2,-1.9969682854545447
mp-1178444,Cr(WO4)3,-1.9522500734375008
mp-1226285,Cr10Co4CuSe20,-0.4076429503392855
mp-771184,Cr10Fe5O24,-2.030809119743591
mp-579963,Cr11Ge19,-0.017356412333332592
mp-571123,Cr11Ge8,-0.002073683815789189
mp-766580,Cr11Ni40Mo9,-0.04256924333333245
mp-1226263,Cr11NiS16,-1.0209466948214287
mp-1226081,Cr12As4C3N,-0.14145571343150035
mp-1226144,Cr12As5C,0.0014898414583339242
mp-1226178,Cr12BP3,-0.3126150358184514
mp-1226707,Cr12Fe3S20,-0.9841294651785712
mp-1178459,Cr12Fe7O48,-1.5818203673134326
mp-1226165,Cr12Ga2(CoS8)3,-0.9979502794512204
mp-505626,Cr12P7,-0.4118330918421048
mp-691148,Cr14MoO24,-2.26361033179487
mp-780521,Cr19O48,-1.6994365049253732
mp-1226578,Cr19S30,-1.0667590282015291
mp-542196,Cr2(Bi2O5)3,-1.7369259919021742
mp-1190798,Cr2(CN2)3,-0.2790967036845457
mp-542727,Cr2(Co7B2)3,-0.16714284999999982
mvc-4499,Cr2(GeO4)3,-1.5251530869117642
mp-566883,Cr2(Hg2O3)3,-1.0895621446323531
mp-647862,Cr2(MoO4)3,-2.159086554117647
mp-1226092,Cr2(NiB2)3,-0.3265713963636369
mp-1101563,Cr2(PO3)5,-2.532117474293831
mp-540211,Cr2(PO4)3,-2.3329231130252106
mp-778446,Cr2(PS4)3,-0.7322101539810918
mp-770163,Cr2(SO4)3,-2.129378178952206
mp-1203351,Cr2(Se2O5)3,-1.4837069730570644
mp-1172462,Cr2(SiO4)3,-2.097681653382353
mp-772321,Cr2(WO4)3,-2.169313716323529
mp-1193668,Cr20(WC2)3,-0.06537898456896536
mp-1213780,Cr21(FeC3)2,-0.0590505400862067
mp-641573,Cr21(MoC3)2,-0.0981935662931031
mp-641575,Cr21(WC3)2,-0.09811555836206913
mp-1193982,Cr22MoC6,-0.05427635767241242
mp-767825,Cr22Ni50Mo3,-0.03188507333333291
mp-1193310,Cr22WC6,-0.04704400284482557
mp-723,Cr23C6,-0.08399170008620699
mp-1227222,Cr23Ga26Fe3,-0.0253623990384612
mp-1226632,Cr24P11C,-0.3341367528422631
mp-504441,Cr2Ag2O7,-1.30921723125
mp-565669,Cr2AgBiO8,-1.5128392604166656
mp-1238827,Cr2AgS4,-0.9244982801785724
mp-20118,Cr2AgTe4,-0.20049508071428532
mp-20552,Cr2As,-0.05209212833333273
mp-1197025,Cr2As6O19,-1.6433540714351842
mp-705033,Cr2AsC10ClO10,-0.8054451398233328
mp-676270,Cr2AsSe,-0.015432920898436288
mp-569424,Cr2B,-0.38096085472222185
mp-565340,Cr2B(PO4)3,-2.6636436515608466
mp-1188995,Cr2B2Ir,-0.3839458746666665
mp-12054,Cr2B3,-0.43415680399999984
mp-1226478,Cr2B3Os,-0.3023788216666657
mp-705619,Cr2Bi28O47,-1.6639860533603912
mp-1226378,Cr2C,-0.04756120958333317
mp-699555,Cr2C13SN3(O2F)5,-0.8377842339236014
mp-24929,Cr2CdH14(NO2)4,-1.08432058017931
mp-19262,Cr2CdO4,-2.1447062678571442
mp-4338,Cr2CdS4,-1.0750822101785715
mp-1226388,Cr2CdSe3S,-0.6769143899776792
mp-22605,Cr2CdSe4,-0.5576684641964279
mp-1226382,Cr2CdSeS3,-0.9362002543973216
mp-1077706,Cr2Co,0.2828546666666677
mp-1199663,Cr2CoH20N6ClO8,-0.9736304786826301
mp-763120,Cr2CoNi3(PO4)6,-2.0891792870238097
mp-24868,Cr2CoO4,-2.1282271542857143
mp-1226398,Cr2CoP3,-0.5433623131547627
mp-21299,Cr2CoS4,-0.9808006001785716
mp-1078160,Cr2CoSe4,-0.4051187777678566
mp-1025239,Cr2CoTe4,-0.14065447857142846
mp-1226392,Cr2Cu(SeS)2,-0.7374205029017864
mp-1182282,Cr2Cu3(OF)12,-1.2070622337682757
mp-1194161,Cr2Cu5(P2O9)2,-2.0409230821059112
mp-504573,Cr2CuO4,-1.935719870714286
mp-1226394,Cr2CuSe3Br,-0.4531434451116071
mp-3880,Cr2CuSe4,-0.4797099099107141
mp-558380,Cr2F5,-2.9494432101357138
mp-1077708,Cr2Fe,0.2785628933333347
mp-19631,Cr2Fe3(SiO4)3,-2.5700556326250013
mp-776058,Cr2Fe3Co(PO4)6,-2.3765787298015875
mp-776010,Cr2Fe3Cu(PO4)6,-2.3428048011904763
mp-776011,Cr2Fe3Ni(PO4)6,-2.3465669675793652
mp-1178423,Cr2Fe3P6WO24,-2.416758890912698
mp-1178441,Cr2Fe3Sb(PO4)6,-2.3370499885515867
mp-1178427,Cr2Fe3Sn(PO4)6,-2.4344266388293656
mp-777216,Cr2Fe3Te(PO4)6,-2.356242895912698
mp-1213831,Cr2FeNO10,-0.5193737239200006
mp-1205244,Cr2FeNO8,-0.9934926214483338
mp-1104680,Cr2FeO4,-2.228386282857142
mp-1078247,Cr2FeS4,-0.9391527137500008
mp-5749,Cr2FeSe4,-0.389323954910714
mp-1226416,Cr2FeSeS3,-0.8373323272544643
mp-1025380,Cr2FeTe4,-0.10992366142857132
mp-20197,Cr2GaC,-0.13579892718749953
mp-10371,Cr2GaN,-0.3997579030949989
mp-1104382,Cr2GaS4,-1.0403117473214285
mp-765147,Cr2H21I7(N2O)3,-0.7615391829884616
mp-720712,Cr2H24(IN3)3,-0.6297768136394726
mp-1227848,Cr2H28C10N6O7,-0.5648695648469809
mp-1226437,Cr2H2Pb4ClO10F,-1.7472702817094998
mp-1198067,Cr2H8N2O7,-1.2003581251300008
mp-744639,Cr2Hg2H2O9,-1.3185845715659998
mp-1192977,Cr2Hg2O9,-1.0593450427884614
mp-1202850,Cr2HgN2Cl2O7,-0.2721643262521423
mp-24899,Cr2HgO4,-1.8835576000000007
mp-565829,Cr2HgO7,-1.4063688725416663
mp-15973,Cr2HgS4,-0.9392315758928576
mp-1226386,Cr2HgSe3S,-0.5594047014062491
mp-1084761,Cr2InPd2,0.14296529533333313
mp-1226368,Cr2InS4,-0.9125469020833342
mp-1226352,Cr2Ir2C,-0.15510316774999922
mp-1183870,Cr2Ir2O5,-0.7720714318055555
mp-8780,Cr2N,-0.5240482974599985
mp-1181809,Cr2N2O7,-0.8416378412281825
mp-1077252,Cr2Ni,0.2583532433333341
mp-1202441,Cr2Ni2H64N13Cl11O12,-1.0065684983988443
mp-775941,Cr2Ni3Sb(PO4)6,-2.194934899107143
mp-1182658,Cr2NiH20(NO7)2,-0.5828030271707689
mp-19344,Cr2NiO4,-1.920408462857144
mp-1025151,Cr2NiSe4,-0.4231729249107141
mp-1206821,Cr2O,-0.01860057708333211
mp-1117519,Cr2O5,-1.6998626673214283
mp-763884,Cr2O5F2,-1.7378728359588882
mp-766796,Cr2OF2,-2.406183790726
mp-29184,Cr2P,-0.4017331751587313
mp-705599,Cr2P2O7,-2.5369214487608223
mp-1040982,Cr2P2O9,-2.3344987702335165
mp-31635,Cr2P3O10,-2.5357244302619053
mp-540528,Cr2P3O13,-2.1688832036210317
mp-776748,Cr2P4H3O16,-2.1744610637772577
mp-562181,Cr2P4O13,-2.6106094998590224
mp-704115,Cr2P4Pb3O16,-2.495194349342857
mp-31653,Cr2P5O16,-2.555838390248447
mp-566926,Cr2PBrO4,-2.188748685267857
mp-567092,Cr2PIO4,-2.106062759955357
mp-1178407,Cr2PO5,-2.4630470435491056
mp-1095837,Cr2ReMo,4.180634230625
mp-31625,Cr2ReO6,-2.221197965555556
mp-1095835,Cr2ReW,4.5141402031250015
mp-1226355,Cr2Rh2C,-0.109997815749999
mp-1226363,Cr2S2BrCl,-1.1428743318975
mvc-11309,Cr2S5,-0.6895705471875004
mp-1226340,Cr2SbAs,-0.002181807499999522
mp-2832,Cr2Se3,-0.5214304801562492
mp-1226267,Cr2SeS,-0.5263475806640631
mp-1078494,Cr2SiC,-0.15052770343749874
mp-18800,Cr2SiO4,-2.495257965714285
mp-775273,Cr2Te(PO4)3,-2.348350969523809
mp-2750,Cr2Te3,-0.2085208664999989
mp-560707,Cr2Te4O11,-1.7582160513970588
mp-24917,Cr2TeO6,-2.019947355277779
mp-1226320,Cr2TeSe,-0.14618884339843685
mp-24898,Cr2WO6,-2.297133910277777
mp-1200076,Cr2XeF10,-2.20372468476154
mp-1041638,Cr3(AsO4)4,-1.5942733378260874
mp-861261,Cr3(CoO6)2,-1.5057043567647057
mp-764630,Cr3(CuO6)2,-1.3025602705882358
mp-771791,Cr3(FeO4)2,-2.0098466761538463
mp-776667,Cr3(FeO6)2,-1.7177924832352933
mp-1226369,Cr3(MoC2)2,0.12356062500000085
mp-1204126,Cr3(NO5)2,-0.4515762997062224
mp-776703,Cr3(NiO6)2,-1.3121649579411765
mp-766854,Cr3(OF)2,-2.2494133192685704
mp-569271,Cr3(P2O7)2,-2.5919773976700684
mp-579247,Cr3(PO4)2,-2.4708688159065932
mp-695952,Cr3(PO4)4,-2.350644817763975
mp-1226346,Cr3(TeSe)2,-0.3432881924553572
mp-1193149,Cr3(W10C3)2,0.18223320336206708
mp-565996,Cr3Ag8(IO6)2,-1.0000673943999994
mp-560237,Cr3AgO8,-1.6590212783333331
mp-1213747,Cr3As,-0.08029845125000001
mp-1079324,Cr3AsC,-0.08217566675000114
mp-22209,Cr3AsN,-0.3502418054759985
mp-1204235,Cr3AsN2O13,-0.5813636349215795
mp-641367,Cr3AuO8,-1.5799519924999987
mp-1226568,Cr3B12Rh25,-0.2539734989999985
mp-889,Cr3B4,-0.4646348895238087
mp-1226327,Cr3B4Mo3,-0.29311962066666697
mp-25743,Cr3B7BrO13,-2.60730768595486
mp-653248,Cr3B7ClO13,-2.6507383192156944
mp-566772,Cr3B7IO13,-2.5730352542881945
mp-1213769,Cr3B7O13F,-2.680756821837777
mp-24912,Cr3BO6,-2.467289995916667
mp-1197141,Cr3BiNO12,-0.9448919771988241
mp-1189286,Cr3C,-0.08274539468749786
mp-20937,Cr3C2,-0.1099914119999994
mp-1182750,Cr3C8(NCl2)6,0.3913403716068964
mp-984629,Cr3CdTe4,-0.008510340625000445
mp-1025503,Cr3Co,0.2385117725000008
mp-775472,Cr3Co(PO4)4,-2.435414216607142
mp-761636,Cr3Co(PO4)6,-2.218929080378152
mp-1226444,Cr3Co2,0.06887625600000054
mp-1201214,Cr3Co2As2(CO)20,-0.7673222652127664
mp-761807,Cr3Co3(SbO8)2,-1.65014441375
mp-761712,Cr3Co3(TeO8)2,-1.5989551387499992
mp-771924,Cr3Co5O16,-1.3918872387499992
mp-1178426,Cr3CoTe2(PO4)6,-2.3047936500793664
mp-984711,Cr3Cu,0.29328165500000125
mp-773405,Cr3Cu(PO4)4,-2.3782277341071434
mp-1226324,Cr3Cu2NiSe8,-0.4066382463392851
mp-1226326,Cr3Cu2SbS8,-0.9108860562500009
mp-561826,Cr3CuO8,-1.6858918966666654
mp-1008282,Cr3Fe,0.12089432000000146
mp-775201,Cr3Fe(PO4)6,-2.2889815574369754
mp-1182655,Cr3Fe2O15,-1.1587948178124996
mp-775288,Cr3Fe2Sb3O16,-1.8901459260416664
mp-763448,Cr3Fe3(TeO8)2,-1.776638720416667
mp-1226425,Cr3Fe3GeAs2,-0.06702447833333262
mp-1226329,Cr3Fe3SiAs2,-0.17297987444444296
mp-1231,Cr3Ga,-0.04906118624999944
mp-18654,Cr3Ga4,-0.023453408095237133
mp-1226345,Cr3GaFe3As2,-0.0176665499999997
mp-3000,Cr3GaN,-0.33134454247599765
mp-1079702,Cr3GaP4,0.01520294892857166
mp-1226433,Cr3GaS6,-1.0841955454374996
mp-20685,Cr3Ge,-0.12316477124999815
mp-29804,Cr3GeC,-0.07283715675000052
mp-637918,Cr3GeN,-0.3397261654759987
mp-744862,Cr3H24C8(NO5)2,-0.6948045211519138
mp-602511,Cr3H8(NO5)2,-1.2538424166291295
mp-602355,Cr3HO8,-1.565280336968333
mp-1214307,Cr3HgF6,-1.6516076387140004
mp-1226318,Cr3In(CoS4)2,-0.8454931304166665
mp-569317,Cr3InO8,-1.8663861469444443
mp-1609,Cr3Ir,-0.06561893499999805
mp-505628,Cr3IrN,-0.3689688724759989
mp-1014345,Cr3N4,-0.5272245349314285
mp-1008278,Cr3Ni,0.14041856749999934
mp-775135,Cr3Ni(PO4)4,-2.392001016607143
mp-774406,Cr3Ni(PO4)6,-2.1836785242016807
mp-776858,Cr3Ni(SO4)6,-2.01122606983456
mp-1226349,Cr3NiB6,-0.3651889960000005
mp-1226323,Cr3NiP4,-0.5212387860714287
mp-1226332,Cr3NiSb4,0.02644266499999937
mp-1226408,Cr3NiSn8,0.06937426750000003
mp-765190,Cr3NiTe2(PO4)6,-2.282764348968254
mp-714896,Cr3O,-0.25177741031249923
mp-772696,Cr3O4,-2.137913974285714
mp-1096920,Cr3O5,-1.88521098453125
mp-557959,Cr3O8,-1.6671810572727268
mp-416,Cr3Os,0.012992612499999723
mp-1196309,Cr3P2H40(C8O5)2,-0.5616839820997986
mp-1047904,Cr3P3O13,-2.4061811098778194
mp-763487,Cr3P4O15,-2.4628656121509738
mp-775219,Cr3P6WO24,-2.433955093613446
mp-1078492,Cr3PC,-0.25349095717857184
mp-1080816,Cr3PN,-0.5177833599045712
mp-1213842,Cr3Pb5ClO12,-1.7187676344409524
mp-653287,Cr3Pb5F19,-2.8472146313929616
mp-10373,Cr3PdN,-0.2597909984759994
mp-446,Cr3Pt,-0.021787663749998742
mp-10374,Cr3PtN,-0.4079036344759999
mp-958,Cr3Rh,0.06400938500000031
mp-1226375,Cr3Rh3S8,-0.9115939973214284
mp-21244,Cr3RhN,-0.32183446047600056
mp-1272,Cr3Ru,0.07113441125000007
mp-1226231,Cr3Ru3C2,0.057426649687499776
mp-849071,Cr3S4,-1.0522151258928574
mp-775051,Cr3Sb(PO4)4,-2.4651298663988093
mp-774041,Cr3Sb(PO4)6,-2.3549509311134464
mp-775347,Cr3Sb3(TeO8)2,-1.839070577708334
mp-777918,Cr3Sb5O16,-1.932046048958334
mp-1226373,Cr3SbAs2,-0.05548225249999916
mp-773170,Cr3SbO8,-1.9871038704166668
mp-984712,Cr3Se,0.3514972653515622
mp-1048591,Cr3Se2ClO8,-1.5898394382462493
mp-729,Cr3Si,-0.34995231249999925
mp-1226647,Cr3Si3Pb10(ClO12)2,-2.0110869887266665
mp-505629,Cr3SiNi2,-0.060239227083332736
mp-773947,Cr3Sn2Sb3O16,-2.002961398125
mp-771431,Cr3Sn3(SbO8)2,-1.9982585760416665
mp-10376,Cr3SnN,-0.18724419747599932
mp-1078012,Cr3Te4,-0.18647743285714166
mp-1226350,Cr3Te5,0.0360171862500005
mp-770187,Cr3TeO8,-1.9419870254166665
mp-773181,Cr3WO8,-2.141654306249999
mp-1043136,Cr4(CuO4)3,-1.5911640460526315
mp-676814,Cr4(Ga2Se5)3,-0.5286530927562495
mp-779956,Cr4(OF3)3,-2.57836459246625
mp-1214408,Cr4(P2O7)3,-2.589875616180876
mp-31658,Cr4(PO4)3,-2.4806425592857133
mp-1226292,Cr4(SeS)3,-0.7737822297968748
mp-1227102,Cr46(BC3)3,-0.10150848653017286
mp-24919,Cr4AgBiO14,-1.5593736081250007
mp-1226275,Cr4B,0.06775710266666693
mp-1199387,Cr4BiNO14,-1.2159474638689989
mp-1226280,Cr4CdAgSe8,-0.4907225138392854
mp-1226341,Cr4CdCoS8,-0.971110009107144
mp-1226224,Cr4CdCuO8,-2.0193902782142854
mp-1226325,Cr4CdFeS8,-0.9908604376785723
mp-1226265,Cr4CoCuS8,-0.9653189866071432
mp-1226342,Cr4CoNiS8,-0.995595605178572
mp-505800,Cr4Cu3(PO4)6,-2.328111519536681
mp-674310,Cr4Cu3Se8,-0.4144924832499991
mp-1226405,Cr4CuNiSe8,-0.4635729706250008
mp-763917,Cr4CuO12,-1.5093259226470592
mp-1196629,Cr4Fe2O19,-1.0649980849500005
mp-1226300,Cr4FeCoS8,-0.9153211580357146
mp-1226331,Cr4FeCu(SeS)4,-0.6922956336160715
mp-6685,Cr4FeCuS8,-0.973056484464285
mp-1226315,Cr4FeCuSe8,-0.4311737477678577
mp-1226289,Cr4FeNiS8,-0.9692684480357148
mp-1226247,Cr4GaCuS8,-1.0709777644642864
mp-1226304,Cr4GaCuSe8,-0.5236274856250002
mp-1226264,Cr4GaS8,-1.0855052348076926
mp-706251,Cr4H67C20(NO)16,-0.5441179155334959
mp-1226645,Cr4In2(CuSe4)3,-0.4075497714186501
mp-1226293,Cr4InAgS8,-1.0225345525595242
mp-1226322,Cr4InAgSe8,-0.5065476972916666
mp-1226282,Cr4InCuS8,-0.9564209047023816
mp-20809,Cr4InCuSe8,-0.5101822858630953
mp-1226243,Cr4Ni,0.04092190599999981
mp-1041443,Cr4O9,-1.7072963266346135
mp-776723,Cr4OF11,-2.882719874646249
mp-767130,Cr4OF6,-2.614878868035454
mp-773396,Cr4P2O9,-2.3476761813690468
mp-585323,Cr4P7O24,-2.56179341357143
mp-504406,Cr4P9O32,-2.3172915657619044
mp-1191548,Cr4PN3O16,-0.6825157649701173
mp-566007,Cr4Si2Br2O7,-2.2766830394166666
mp-567043,Cr4Si2Cl2O7,-2.418637799684666
mp-768078,Cr4Si4O13,-2.7348938050595244
mp-1226328,Cr4Te3S,-0.17623597550781336
mp-1226252,Cr4Te3Se,-0.08738767232421908
mp-1199834,Cr4Xe5F44,-1.4969933649973586
mp-1192637,Cr5(Bi3Se8)2,-0.3894403706481487
mp-540446,Cr5(PO4)4,-2.525938639742856
mp-767345,Cr5(Si2O7)2,-2.637530888152175
mp-1226038,Cr5(Te3Se)2,-0.206784349783654
mp-1046527,Cr5(TeO6)3,-1.7274478943269242
mp-676751,Cr5AgS8,-0.991530786607144
mp-505539,Cr5As3,-0.023408428749999814
mp-15617,Cr5B3,-0.42494304749999934
mp-1213937,Cr5Cu(GeO6)2,-2.1442996570000004
mp-1213888,Cr5Cu2(PO4)6,-2.4270316968339776
mp-568324,Cr5Ge3,0.010483690000000044
mp-1226160,Cr5InS8,-1.0347507904166673
mp-1104974,Cr5InSe8,-0.5009575651488102
mp-1226031,Cr5NiAs3,-0.07275195722222191
mp-1226452,Cr5NiS8,-1.0246501616071433
mp-1226062,Cr5NiSn12,0.09807131166666652
mp-773920,Cr5O12,-1.8473333963235297
mp-1046050,Cr5O7,-2.013521993229168
mp-1311,Cr5S6,-0.983882195852273
mp-849084,Cr5S8,-1.0738022375000011
mp-771524,Cr5Sb3O16,-1.9978193172916672
mp-1104327,Cr5Se8,-0.5176785152884619
mp-7506,Cr5Si3,-0.31645054312500065
mp-1226086,Cr5Te6,-0.13662420181818194
mp-1213754,Cr5Te8,-0.2134259046153849
mp-1226023,Cr6BC3,-0.16237236229166568
mp-1226051,Cr6C3N,-0.210785191862999
mp-1226266,Cr6Cd(CuO6)2,-1.9923605773809527
mp-1226097,Cr6Co2CuSe12,-0.40520219348214176
mp-1204438,Cr6CuSi2(Pb5O17)2,-1.8165485555188672
mp-1213798,Cr6O11,-2.126959859044117
mp-504359,Cr6P7O24,-2.538230251486485
mp-694897,Cr6PbO18,-1.3104360272999998
mp-541940,Cr6Si7Ni16,-0.338560461034483
mp-505154,Cr7(PO4)6,-2.5533715214285704
mp-1226071,Cr7Cd3(InS8)2,-1.0051662016666671