task_id,composition,formation_energy_per_atom
mp-1182432,CdC2S2(IN2)2,0.2399260965777272
mp-1182214,CdC2S2(N4Cl)2,-0.026716973745666905
mp-1214165,CdC2S2(NO)6,-0.28444752867088224
mp-1199754,CdC3NCl3,0.4650899881675006
mp-1197974,CdC3NO6,-0.9253606653299988
mp-1193461,CdC4S2(NO)4,-0.34262153550966634
mp-1214110,CdC4S4(N5O3)2,0.5111415728979989
mp-1182555,CdC7S3N4,0.8325002478028324
mp-1102642,CdCBr3N,0.3886115539783332
mp-10969,CdCN2,-0.0933360746274996
mp-1196021,CdCN3Cl2O,-0.6142078317074997
mp-1095515,CdCNCl3,-0.5944991201516666
mp-4385,CdCO3,-1.7790239185000003
mp-1106319,CdCSBr2N3O,-0.08242321791138904
mp-1080124,CdCl4,-0.6280072926079999
mp-1206433,CdCl6,-0.1626309635085715
mp-1077089,CdClO,-0.9166704848366668
mp-1213911,CdCo(PO3)4,-2.4417904985317467
mp-1227073,CdCo3(PO3)8,-2.418426955892858
mp-1017553,CdCo3N,-0.03925554947599963
mp-1181881,CdCoCu3Se4,-0.14854231659722214
mp-1213938,CdCoF5,-2.2857286422785705
mp-24430,CdCoH18N6Cl5,-0.8322487467577422
mp-770662,CdCoO3,-1.20185948775
mp-1195655,CdCu(SeO3)2,-1.2668612472187504
mp-568315,CdCu2,0.00968283916666716
mp-560100,CdCu2(BO3)2,-1.8749148182575759
mp-1214264,CdCu2(SO4)2,-1.052353949471155
mp-13982,CdCu2GeS4,-0.7404190064062508
mp-10967,CdCu2GeSe4,-0.3427124542968749
mp-1078909,CdCu2GeTe4,-0.18124626249999976
mp-754978,CdCu2O3,-1.0521933064583342
mp-1093832,CdCu2Rh,1.99943978875
mp-6449,CdCu2SiS4,-0.8459549870312504
mp-1087540,CdCu2SiTe4,-0.17461793812499993
mp-1226867,CdCu2Sn3S8,-0.7573042673214287
mp-1078292,CdCu2SnS4,-0.7442634657812506
mp-16565,CdCu2SnSe4,-0.3714544530468751
mp-1091413,CdCu2SnTe4,-0.21793880375000008
mp-1183623,CdCu3,0.07378499625000058
mp-1181879,CdCu3NiSe4,-0.16611652770833352
mp-1201664,CdCu4H14(SO9)2,-1.4254874724693591
mp-9075,CdCuF4,-2.16462699996
mp-753954,CdCuH8(ClO)4,-1.294323283444444
mp-1226928,CdCuP2O7,-2.1574866125487016
mp-1097581,CdCuPd2,1.7415799087500003
mp-568800,CdCuSb,0.17714631333333367
mp-1226823,CdFe(PS3)2,-0.6980990273660709
mp-703231,CdFe2Sb2(PO4)6,-2.399582713653062
mp-1227130,CdFe3(SnS4)2,-0.7288800019642859
mp-1228572,CdFe4Cu10(SnSe4)5,-0.2714164387968744
mp-1226789,CdFe4NiO8,-1.6481670196428564
mp-558869,CdFeC5N6O,0.2247762270157148
mp-1226945,CdFeCu4(SnSe4)2,-0.3050004477343746
mp-777146,CdFeO3,-1.4364990692500001
mp-1093747,CdFeRh2,2.47338494875
mp-1226715,CdFeS2,-0.6681041657812505
mp-705344,CdFeSn(PO4)3,-2.4293276356349214
mp-1181874,CdGaCu3Se4,-0.17950961326388892
mp-561283,CdGaH14O7F5,-1.7356571198349993
mp-1097377,CdGaPd2,1.0932502187499995
mp-861909,CdGaRh2,-0.3710370512500001
mp-555027,CdGe(BiO3)2,-1.7988910507500002
mp-7762,CdGe2O5,-1.9520589401562496
mp-1183649,CdGe3,0.2857694875000001
mp-1226788,CdGeAsP,-0.08270987428571397
mp-2951,CdGeO3,-1.8817177362500004
mp-695422,CdGePH3O7,-1.5716986841732974
mp-1213925,CdGePO7,-1.6309728600892854
mp-1183656,CdH,0.38823420069000014
mp-863012,CdH10C3NCl3,-0.6238492334505551
mp-1191972,CdH10S2(NO2)4,-1.1981910023538
mp-698416,CdH12C2(NCl2)2,-0.756793877559047
mp-1197904,CdH12C2S2(N3Cl2)2,-0.6279222863475916
mp-567467,CdH12C4Br3N,-0.4213369542453972
mp-569847,CdH16C4(Br2N)2,-0.4934878024140738
mp-568812,CdH16C4(NCl2)2,-0.6568852535451839
mp-699261,CdH16C4S4(N4Cl)2,-0.5808970349208575
mp-1201285,CdH16C4S4(N5O3)2,-0.6449736649504879
mp-722467,CdH18Se4(N2O7)2,-1.0616747212574391
mp-644265,CdH2(CO2)2,-1.3082711608044448
mp-756998,CdH2(SO4)2,-1.8103975190665391
mp-690848,CdH20C2S2(NO2)6,-0.3752510005187208
mp-24273,CdH20C4S4(NO6)2,-1.0114714106606972
mp-707501,CdH24C4(BrN2)6,-0.5864598499029784
mp-1199936,CdH2C4(S3N2)2,-0.2409621113902945
mp-697264,CdH2SeO4,-1.3990532066667185
mp-721583,CdH2SeO5,-1.3567075393981949
mp-1194501,CdH3Cl3O,-1.2694451092987502
mp-722862,CdH3NO5,-1.275493472449
mp-24509,CdH4(BrO4)2,-0.9117019161319999
mp-1182013,CdH4(C2O3)2,-1.1505613487986668
mp-541375,CdH4Br3N,-0.755153976873333
mp-697033,CdH4CN2Cl2O,-0.9920572537054546
mp-1198870,CdH4CS2(NO3)2,-0.7546222442103119
mp-24356,CdH4NCl3,-1.0792861510155554
mp-722381,CdH4S2O5,-1.4732969778212492
mp-1198034,CdH5Br3N2,-0.6011800966236365
mp-24749,CdH6(CO3)2,-1.3482107362813338
mp-1226730,CdH6(NCl)2,-0.8703473289090915
mp-707251,CdH6(SO4)4,-1.3505440164062958
mp-695891,CdH6C(BrN)3,-0.6385836926864285
mp-698349,CdH6C4(S2O)2,-0.5256253573805881
mp-1195497,CdH7C3NO6,-1.1593691361927771
mp-1182065,CdH8(NO5)2,-1.2541166657723803
mp-600182,CdH8C2Br3N,-0.5231387449226659
mp-570587,CdH8C2NCl3,-0.7111042854079993
mp-697260,CdH8C2S2(BrN2)2,-0.5607772383739474
mp-1204467,CdH8C4(NCl)2,-0.2888767126611765
mp-24307,CdH8C4(S2N3)2,-0.4079489551952168
mp-698468,CdH9C2(N2O5)2,-0.9787471333500002
mp-698392,CdH9C3NCl3,-0.5252488215288229
mp-1227599,CdH9C3SBrCl2O,-0.631177808370139
mp-1214331,CdHC2(NO)4,-0.7538562752616672
mp-1096862,CdHCl3,-0.31040793868000005
mp-644222,CdHClO,-1.4597325282824998
mp-723054,CdHSeNO6,-0.982209981834376
mp-30488,CdHg2,0.029090478333333374
mp-560904,CdHg2SO6,-1.4663828336562503
mp-556369,CdHg2SeO6,-1.088334713109375
mp-1183652,CdHg3,0.03373074625
mp-680331,CdHg3C6S6(N3Cl)2,-0.19220017073645806
mp-1120716,CdHg3Te4,-0.23409449562499995
mp-570838,CdHg4(AsI2)2,-0.2780086227272727
mp-557580,CdHg4C6S6(Br2N3)2,-0.14972024245018484
mp-1226731,CdHg4Se5,-0.2884950287968753
mp-1226794,CdHg4Te5,-0.06380209350000003
mp-567910,CdHg6(As2Br3)2,-0.3764905077941178
mp-1227680,CdHg6(Sb2I3)2,-0.20856220014705887
mp-569454,CdHgAsBr,-0.37569669937500016
mp-556367,CdHgC4(SN)4,-0.11719590826928593
mp-542943,CdHgC4(SeN)4,0.16228487472178546
mp-9146,CdHgO2,-1.0485059043749998
mp-1183640,CdHgPd2,-0.2883995687500001
mp-1181848,CdHgS4,-0.4214398102083329
mp-1188137,CdHgSBr,-0.4030486422656252
mp-1226733,CdHgSe2,-0.413251625546875
mp-1226741,CdHgTe2,-0.30577822375
mp-1214466,CdI3N2,0.8960295687900004
mp-1025115,CdIBr,-0.7277908449999998
mp-1191962,CdIClO3,-1.1489750420016671
mp-1191056,CdIO4,-0.941593767083333
mp-1181966,CdIO9,0.1104458189772718
mp-1226914,CdIn2(SeS)2,-0.7403842981398812
mp-1097339,CdIn2Bi,0.8633635308333336
mp-1096341,CdIn2Ga,1.0827870670833333
mp-1097201,CdIn2Hg,0.9108836820833334
mp-19803,CdIn2O4,-1.8655872202380943
mp-1226840,CdIn2SeS3,-0.8541035474925595
mp-1226759,CdIn2SnAu2,-0.20750523444444427
mp-1183676,CdIn3,0.03620692874999998
mp-1226770,CdIn4TeAs4,-0.07195757083333376
mp-1096114,CdInAg2,0.8868947979166668
mp-1226727,CdInAgTe3,-0.3324635747222218
mp-1226742,CdInAsSe,-0.4141420629817709
mp-505222,CdInBr3,-0.7959350286666662
mp-630773,CdInGaS4,-0.9360617163690479
mp-1097590,CdInHg2,0.6579227229166666
mp-862374,CdInPd2,-0.4727437970833335
mp-977367,CdInRh2,-0.3031398770833338
mp-20519,CdInS2,-0.7098685641145832
mp-1016828,CdIrO3,-0.8422390617500006
mp-631388,CdIrRu,0.649807393333333
mp-1213941,CdMoO2,-1.1659727137499996
mp-19039,CdMoO4,-1.8925705091666665
mp-565194,CdMoPO6,-2.274398347460317
mp-1008918,CdN,0.84487729631
mp-570471,CdN6,0.1169372395671441
mp-1080000,CdNCl3,-0.368739540432
mp-1105795,CdNF3,-0.8968707596900003
mp-1191894,CdNO4,-0.9021197941466662
mp-1213955,CdNO5,-0.4968773623042862
mp-985556,CdNi,-0.021307248333333344
mp-1213935,CdNi(PO3)4,-2.397069619642858
mp-745186,CdNi2H24(ClO2)6,-1.3154879573653335
mp-1206343,CdNi3C,0.021139719250000858
mp-1017554,CdNi3N,-0.13938798147600126
mp-1226706,CdNiO2,-0.973595784375
mp-631410,CdNiP,0.5613899942857147
mp-2310,CdO2,-0.8571678950000005
mp-1213862,CdOs2(NO2)4,0.15470219836533375
mp-1016882,CdOsO3,-1.06306194875
mp-1214259,CdP14Pb,-0.04547175734375042
mp-1197015,CdP2(H4O5)2,-1.8686348524164624
mp-24316,CdP2(HO)4,-1.3809290557968823
mp-1238387,CdP2(HO2)4,-2.0260083185843807
mp-24407,CdP2H6O7,-1.7084491018597332
mp-556171,CdP2Xe5F22,-1.837484121598857
mp-1213892,CdP3NO9,-1.8199585817898976
mp-772228,CdP4O11,-2.4767040423325897
mp-1227639,CdP6Pb9O26,-2.227773570246599
mp-505364,CdPH6NO5,-1.5683223564280608
mp-1204110,CdPHO3,-1.893085406863256
mp-1181929,CdPNO5,-1.740535505721608
mp-631403,CdPOs2,0.8685443207142862
mp-1078100,CdPPd5,-0.453822961020408
mp-1025187,CdPPt5,-0.3477052667346945
mp-5328,CdPS3,-0.8079688668660715
mp-1079559,CdPSe3,-0.30991434958482106
mp-1077904,CdPb2(ClO)2,-1.5606207734314286
mp-1183660,CdPb3,0.04381291625000028
mp-1226877,CdPb3Se4,-0.5320837011718753
mp-37216,CdPbF6,-2.3827437390175
mp-685257,CdPbO3,-1.3996500095000002
mp-1201044,CdPbO6,-0.4024423821875001
mp-1226761,CdPbS2,-0.8423346732812504
mp-606650,CdPd(CN)6,0.3124746698728588
mp-1183633,CdPd2Au,-0.2949093812500001
mp-1232324,CdPd2O3,-0.5172842681250008
mp-1096277,CdPd2Pb,1.22462200375
mp-1096175,CdPd2Pt,1.95923862875
mp-865985,CdPd3,-0.26163389375
mp-13675,CdPd3O4,-0.9383401425000004
mp-1025371,CdPd5Se,-0.2909009747991078
mp-1096217,CdPdAu2,1.25479077125
mp-1226775,CdPdF4,-1.9255751632933336
mp-13984,CdPdF6,-1.9694691615175
mp-1213964,CdPt(CN)6,0.1822098127299999
mp-1067236,CdPt3,-0.2017064062499996
mp-1213850,CdPt3O4,-0.8196913781249995
mp-5858,CdPtF6,-2.0266815552675
mp-707538,CdRe2(H2O5)2,-1.6318765048223525
mp-1104869,CdRe2(NO2)4,-0.01041044463466676
mp-1214630,CdRe2C2(N2O5)2,-1.112997419711578
mp-1215040,CdRe2C4S4(NO)8,-0.4750539733440746
mp-1214657,CdRe2C6(N6O7)2,-0.4673410986731418
mp-733747,CdRe2H16C4S4(NO)8,-0.9132138443769756
mp-1203976,CdRe2H26C6S6(N4O3)3,-0.8271406902549193
mp-733848,CdRe2H8C2(N2O5)2,-1.328861892814074
mp-1093730,CdRh2Pb,2.0462950512500004
mp-1016875,CdRhO3,-0.8649997237500002
mp-1016849,CdRuO3,-1.0983480527500007
mp-1095440,CdS2,-0.7714872768749998
mp-17586,CdS2O7,-1.9265238994375
mp-8516,CdSO3,-1.788042273562502
mp-8459,CdSO4,-1.9597288198437488
mp-1192703,CdSO5,-1.3820081100446424
mp-1183739,CdSb3,0.2062482874999998
mp-1198900,CdSb5OF28,-2.440649651773429
mp-560411,CdSb6(S2I)4,-0.6104224993421062
mp-16246,CdSbAu,-0.1200318866666669
mp-1096681,CdSbRh2,1.9328910075
mp-559588,CdSbS2Br,-0.7766942496250001
mp-557049,CdSbS2Cl,-0.9588314862769998
mp-1095493,CdSe2,-0.33745938156249977
mp-9178,CdSe2O5,-1.345170123554687
mp-1201724,CdSe2O9,-0.7232819882031253
mp-559203,CdSeO3,-1.4314375834687505
mp-761036,CdSeO4,-1.3320153755989583
mp-1198755,CdSi3AsH27C9I2,-0.343125565964883
mp-604998,CdSi3PH27C9Br2,-0.3690916610728562
mp-1205257,CdSi3PH27C9I2,-0.3496881346775076
mp-560560,CdSiO3,-2.5607788467500003
mp-1183726,CdSn,0.0715909250000002
mp-1183864,CdSn2H12(OF)6,-1.7741318701140736
mp-1183720,CdSn3,0.06306692000000025
mp-1214431,CdSn3F6,-1.477542089714
mp-1226720,CdSnAu,-0.1974727266666664
mp-13907,CdSnF6,-2.7392092858925
mp-1199087,CdSnP14,-0.03980199093749981
mp-1097428,CdSnPd2,1.1779532199999996
mp-861877,CdSnRh2,-0.3446758475000005
mp-10063,CdSnSb2,-0.041018563750000236
mp-1226740,CdSnTe2,-0.2798056024999997
mp-1189706,CdTcO3,-1.5753627597500006
mp-1203009,CdTe(Pb3O5)2,-1.5346855979166665
mp-1226705,CdTe2Pb,-0.3034025712499999
mp-565932,CdTeMoO6,-1.783808442500001
mp-19387,CdWO4,-1.9967877866666663
mp-12063,Ce(AgGe)2,-0.3773290420000002
mp-16966,Ce(Al10Co)2,-0.1605517693478253
mp-3910,Ce(Al10Cr)2,-0.17884722999999988
mp-1197724,Ce(Al10V)2,-0.2313546215217395
mp-20003,Ce(Al2Cu)4,-0.3040700761538456
mp-16486,Ce(Al2Fe)4,-0.4069963169230769
mp-607077,Ce(Al4Fe)2,-0.41684044113636404
mp-1193938,Ce(Al5Fe)2,-0.3555009369230777
mp-31364,Ce(Al5Ru)2,-0.5118144684615384
mp-1078886,Ce(AlAu)2,-0.6824028130000002
mp-1214275,Ce(AlBr4)3,-1.3273478962499998
mp-3303,Ce(AlGa)2,-0.4209913119999996
mp-7101,Ce(AlGe)2,-0.4008239520000004
mp-1078340,Ce(AlPd)2,-0.8117865590000001
mp-1207106,Ce(AlSi)2,-0.3620028839999997
mp-3286,Ce(AlZn)2,-0.3716880979999999
mp-1189855,Ce(As3Os)4,-0.3631466864705882
mp-1021508,Ce(As3Ru)4,-0.4799621494117641
mp-567375,Ce(AsPd)2,-0.8283179180000004
mp-1087498,Ce(AsRh)2,-0.9225277599999998
mp-20908,Ce(BC)2,-0.4257101451666671
mp-8680,Ce(BIr)2,-0.7042472396666681
mp-20376,Ce(BO2)3,-3.1362941997500005
mp-1080734,Ce(BOs)2,-0.4819220176666647
mp-1106048,Ce(BRh)4,-0.5576783746296299
mp-15588,Ce(BRu)2,-0.5357836786666695
mp-1201565,Ce(BRu)4,-0.5290559285185199
mp-672205,Ce(C2N3)3,0.9655523960050008
mp-1201526,Ce(CO2)3,-2.022624290374999
mp-1203677,Ce(Cd10Ni)2,-0.08150926282608696
mp-1197565,Ce(Cd10Pd)2,-0.1778835452173914
mp-1192979,Ce(ClO)3,-1.1375302140757146
mp-768684,Ce(ClO4)3,-1.0950388446737502
mp-768918,Ce(ClO4)4,-0.9839606563352372
mp-1205398,Ce(Co2B)6,-0.3516057810526308
mp-568182,Ce(CoAs)2,-0.7269069919999993
mp-22165,Ce(CoB)4,-0.4690925774074073
mp-20933,Ce(CoGe)2,-0.5782056479999994
mp-5820,Ce(CoP)2,-1.0083746088571424
mp-1227093,Ce(CoP3)16,-0.509575132043956
mp-3437,Ce(CoSi)2,-0.7610780640000001
mp-2873,Ce(CrB3)2,-0.6217754655555565
mp-1207209,Ce(CrSi)2,-0.377162469999999
mp-1214035,Ce(Cu2P)2,-0.5184908425170074
mp-20173,Ce(CuGe)2,-0.4970009519999991
mp-1006321,Ce(CuSb)2,-0.3903976129999997
mp-5452,Ce(CuSi)2,-0.5750995580000001
mp-1080173,Ce(CuSn)2,-0.3694541109999996
mp-1189064,Ce(ErS2)3,-2.4663931574375013
mp-1021509,Ce(FeAs3)4,-0.4122343076470584
mp-1006322,Ce(FeB)4,-0.4919066935185189
mp-21882,Ce(FeGe)2,-0.44975014200000063
mp-6957,Ce(FeP)2,-0.9974555488571426
mp-16272,Ce(FeP3)4,-0.6497022873949581
mp-1181682,Ce(FeSb3)4,-0.21150799294117667
mp-3035,Ce(FeSi)2,-0.6572497819999995
mp-1095071,Ce(GaPd)2,-0.7590578280000002
mp-1103596,Ce(Ge2Rh3)2,-0.7454808545454548
mp-1190040,Ce(Ge3Pt)4,-0.3876798947058822
mp-1068908,Ce(GeAu)2,-0.4539396320000002
mp-510315,Ce(GeIr)2,-0.7713334639999999
mp-13467,Ce(GePd)2,-0.7813009119999996
mp-20400,Ce(GePt)2,-0.8986485389999999
mp-5577,Ce(GeRh)2,-0.8553985619999999
mp-22343,Ce(GeRu)2,-0.6467126140000005
mp-625915,Ce(HO)3,-2.2207199663728567
mp-1189290,Ce(HoS2)3,-2.4677955394375006
mp-778759,Ce(IO3)2,-1.7318223647222228
mp-510464,Ce(IO3)3,-1.4656660806730768
mp-23493,Ce(IO3)4,-1.3524097855882349
mp-21537,Ce(In2Au)2,-0.37816148690476176
mp-641911,Ce(In2Pd)2,-0.5171129986904768
mp-602328,Ce(InPt)2,-0.7633653423333335
mp-1105574,Ce(LuS2)3,-2.4554124549375005
mp-1183866,Ce(Mg4Al3)4,-0.057562875862068826
mp-19865,Ce(MgSi)2,-0.4217439280000008
mp-16487,Ce(MnAl2)4,-0.3277930023076917
mp-1226889,Ce(MnCo2)4,0.026268812307692384
mp-21089,Ce(MnGe)2,-0.44542220399999904
mp-2965,Ce(MnSi)2,-0.5795940180000002
mp-676489,Ce(Mo3S4)2,-1.2707420388333333
mp-675769,Ce(Mo3Se4)2,-0.7135800279166659
mp-1201969,Ce(N4O9)2,-0.7104127963533339
mp-1182846,Ce(NF3)2,-1.8930705666
mp-37199,Ce(NdS2)2,-2.3992166687500003
mp-21695,Ce(Ni2B)6,-0.3912007455263156
mp-510125,Ce(Ni2Sn)2,-0.4032474428571423
mp-582274,Ce(Ni5P2)2,-0.6026817959047615
mp-610645,Ce(NiAs)2,-0.8124025559999999
mp-3325,Ce(NiGe)2,-0.6639259700000004
mp-569697,Ce(NiP)2,-1.0086699388571432
mp-1078924,Ce(NiSb)2,-0.6193222079999998
mp-1078794,Ce(NiSn)2,-0.4979493550000001
mp-1021505,Ce(P3Os)4,-0.6296461850420159
mp-10069,Ce(P3Ru)4,-0.6842641685714279
mp-1079211,Ce(PIr)2,-1.0357362188571428
mp-5843,Ce(PO3)3,-2.975731495975275
mp-1019593,Ce(PO3)4,-2.897771499180674
mp-1207218,Ce(PPd)2,-0.9603016408571434
mp-1205866,Ce(PPt)2,-0.9625971288571435
mp-607725,Ce(PPt2)2,-0.8706990231122447
mp-505502,Ce(PRh)2,-1.1253161308571435
mp-574244,Ce(PRu)2,-1.020987626857142
mp-1226961,Ce(PrS2)2,-2.3966381816071443
mp-27861,Ce(Re2Si)2,-0.4619180471428572
mp-21947,Ce(SO4)2,-2.568502321079545
mp-1201840,Ce(SO6)2,-1.3463035182083338
mp-1105726,Ce(Sb3Os)4,-0.17760885529411793
mp-1189811,Ce(Sb3Ru)4,-0.33973234529411706
mp-1078778,Ce(SbPd)2,-0.7732382609999995
mp-1080285,Ce(SbSe2)2,-0.5231638749107138
mp-541090,Ce(SeO3)2,-2.1534612446875
mp-21838,Ce(SeO4)2,-1.8636466815625
mp-5605,Ce(SiAg)2,-0.3956406279999996
mp-5173,Ce(SiAu)2,-0.5774106859999997
mp-569496,Ce(SiAu2)2,-0.4628686199999998
mp-21900,Ce(SiIr)2,-1.0491235199999989
mp-4537,Ce(SiNi)2,-0.8063791099999988
mp-4767,Ce(SiOs)2,-0.7196678560000009
mp-3826,Ce(SiPd)2,-0.9063338879999996
mp-22438,Ce(SiPt)2,-1.0975461710000003
mp-4090,Ce(SiRh)2,-1.061660976000001
mp-3566,Ce(SiRu)2,-0.8832147079999999
mp-34009,Ce(SmS2)2,-2.3960963958928576
mp-1104512,Ce(Sn2Pd)2,-0.5570184757142859
mp-1193462,Ce(Sn2Rh)2,-0.6117748535714286
mp-20752,Ce(Sn3Ru2)2,-0.3463229154545463
mp-21358,Ce(SnIr)2,-0.5231339579999996
mp-1080026,Ce(SnPd)2,-0.7119876550000008
mp-672267,Ce(SnPt)2,-0.7847134739999995
mp-1079827,Ce(SnRh)2,-0.6716505209999994
mp-4599,Ce(TeO3)2,-2.3101071313888895
mp-567387,Ce(TiAl10)2,-0.2663283255797106
mp-1188911,Ce(TmS2)3,-2.4644386089375003
mp-779925,Ce(WO4)2,-2.577037957272726
mp-1006324,Ce(YS2)3,-2.466954832437501
mp-1227796,Ce(YSi)4,-0.7330930369444444
mp-1199912,Ce(Zn10Ir)2,-0.21787306521739125
mp-1077954,Ce(ZnAu2)2,-0.48528623714285707
mp-1213847,Ce(ZnP)3,-0.5784720494897962
mp-569274,Ce10(B3C4)3,-0.3807238758870967
mp-1227879,Ce10(NiSn)3,-0.3366348221875004
mp-571439,Ce10Ga5Br4,-0.7625932897368407
mp-30276,Ce10Ga5Cl4,-1.0036552088442108
mp-579209,Ce10S14O,-2.514359769225001
mp-645688,Ce10S19,-2.1982184136961207
mp-1198305,Ce10Se14O,-1.9594977955625001
mp-652044,Ce10Se19,-1.6398850497683188
mp-694972,Ce10Si10BrN17O9,-2.186512238440637
mp-1227652,Ce10Si5Ni,-0.4771810487499994
mp-555617,Ce10Si8O3,-1.3890586744642843
mp-645273,Ce10Te19,-1.2505445025862063
mp-676880,Ce10US16,-2.3276016905555563
mp-531564,Ce10Y22O53,-3.947810237955884
mp-1213990,Ce11(Ni2Ge3)2,-0.6004779038095227
mp-1192200,Ce11In9Ni4,-0.3868394933333335
mp-675160,Ce11MnS16,-2.274596258928572
mp-505619,Ce11O20,-3.9559744443548386
mp-684020,Ce12C6I17,-1.0834397617857137
mp-637609,Ce12InPt7,-0.8002532841666664
mp-1214514,Ce12Sn5Ge3,-0.5568524055000005
mp-684627,Ce13O24,-3.952249921081081
mp-568360,Ce13Zn58,-0.2658310423239431
mp-685970,Ce14Gd18O55,-3.869718310675288
mp-624355,Ce14Si11Ni6,-0.6800104251612901
mp-531963,Ce14Y18O55,-3.934301424353449
mp-1229288,Ce15Ni32,-0.36820500468085104
mp-684594,Ce16O27,-3.907971022645349
mp-570369,Ce16Ru9,-0.3270777323999994
mp-673643,Ce17O32,-3.9538183036734686
mp-1196346,Ce18C18Cl11,-1.1146340956034035
mp-1213885,Ce2(Al3Ir)3,-0.8296621274999987
mp-1213916,Ce2(Al3Rh)3,-0.7900889225000002
mp-567554,Ce2(Al5Ru)3,-0.5271054467499994
mp-1213867,Ce2(CN2)3,-0.8924224255027245
mp-1226892,Ce2(CoCu)5,-0.07484668666666631
mp-1025560,Ce2(CuGe)3,-0.428005770625
mp-1226995,Ce2(CuNi)5,-0.22867010249999944
mp-1206459,Ce2(CuSn)3,1.769868545625
mp-1213877,Ce2(Ga3Ir)3,-0.6596083135714293
mp-1213907,Ce2(Ga3Rh)3,-0.6890085103571428
mp-1214327,Ce2(Ga3Ru)3,-0.532475356428572
mp-697672,Ce2(GeO3)3,-2.7528312104464296
mp-1227310,Ce2(InSn)3,-0.483740358125
mp-1226915,Ce2(MnCu3)3,0.04222485642857115
mp-1226973,Ce2(MnNi)5,-0.10459744166666596
mp-1227172,Ce2(MoO4)3,-2.6550564605882347
mp-1182126,Ce2(N2O9)3,-0.8862044943722862
mp-541851,Ce2(Ni7B2)3,-0.332952212413794
mp-1206740,Ce2(PRh)3,1.0766311266964277
mp-1226828,Ce2(PdRh)3,-0.70572853
mp-1203667,Ce2(SO6)3,-1.3874497882472825
mp-18287,Ce2(SbPd3)3,-0.6874394192857147
mp-638687,Ce2(SeO3)3,-2.2532744840736614
mp-1193751,Ce2(Si2Pd7)3,-0.713369320344828
mp-1226905,Ce2(TlSn)3,-0.3943331875
mp-505428,Ce2(WO4)3,-2.6877917576470582
mp-11665,Ce2(Zn2Ge)3,-0.3782459804545452
mp-17567,Ce2(ZnGe2)3,-0.3872317718181816
mp-569703,Ce20Mg19Zn81,-0.25468759854166645
mp-651710,Ce20Ti11(S22O3)2,-2.3797460754269544
mp-647805,Ce21Fe8Bi7C12,-0.4700042041666671
mp-1214774,Ce23Cd4Ir7,-0.3760494258823521
mp-680512,Ce25Ni49P33,-0.9647755352403196
mp-1183760,Ce2AgHg,-0.1621709600000001
mp-867239,Ce2AgPb,-0.23939597000000035
mp-1183725,Ce2AgSn,-0.3337453887499997
mp-1226920,Ce2Al11Pd3,-0.5449565281249997
mp-570981,Ce2Al16Pt9,-0.9839188751851858
mp-1226826,Ce2Al2PdPt,-0.8787141516666667
mp-1226882,Ce2Al3Fe,-0.33819892
mp-1226834,Ce2Al3GaPd4,-0.7970010959999996
mp-18232,Ce2Al3Ge4,-0.4610158694444435
mp-1226835,Ce2Al3Ru,-0.5227543283333335
mp-1227005,Ce2Al41Mo3,-0.16714659869565196
mp-1226991,Ce2Al6CuAu,-0.4942934799999996
mp-1226839,Ce2AlFe3,-0.1644034016666668
mp-1227010,Ce2AlGaNi2,-0.5858523955555555
mp-1105912,Ce2AlGe6,-0.4355388211111115
mp-1025275,Ce2AlNO3,-3.053730705161427
mp-1078316,Ce2AlRu2,-0.5138105659999994
mp-1202030,Ce2AlSi2O9,-3.5464764272321423
mp-1228669,Ce2B12Br2O27,-2.29865680497093
mp-30898,Ce2B2Ir5,-0.742624703703702
mp-1019592,Ce2B8O15,-3.0655988048833325
mp-1077367,Ce2Bi,-0.5310284366666664
mp-606121,Ce2Bi5Rh3,-0.4506611939999999
mp-1078363,Ce2BiN,-1.227857894345
mp-23003,Ce2BiO2,-2.8738781575000005
mp-570537,Ce2Br3N,-1.854985678105
mp-1104603,Ce2Br5,-1.8009123178571431
mp-1025352,Ce2C(NO)2,-2.3384477280014293