task_id,composition,formation_energy_per_atom
mp-1214568,Ba4(Sn3Bi)3,-0.4630940409375004
mp-570662,Ba4Ag3Ge20,-0.2586799574074071
mp-556896,Ba4AgAuO6,-2.207159907291667
mp-1214528,Ba4Al,0.32322859800000003
mp-1228412,Ba4Al(IrO5)2,-2.4741156825
mp-560978,Ba4Al2O7,-3.199104424134616
mp-553943,Ba4Al3Cu2F21,-3.6291796973329995
mp-2631,Ba4Al5,-0.22190401333333296
mp-8300,Ba4As2O,-1.5824975944642854
mp-1214488,Ba4As3,-1.0483917035714292
mp-1194958,Ba4B10Cl2O19,-2.933485600055332
mp-553990,Ba4B2N4O,-1.4740943231003032
mp-1199190,Ba4Bi(IrO4)3,-2.0976050725000004
mp-1228269,Ba4Bi(PbO4)3,-2.163505601500001
mp-1228030,Ba4Bi2O,-1.5162923673214286
mp-30892,Ba4Bi3,-0.9060269071428572
mp-38357,Ba4Bi3F17,-3.523392233759583
mp-755667,Ba4Bi3O11,-2.183644554930554
mp-1228338,Ba4Bi3PbO12,-2.218926561000001
mp-555218,Ba4Br6O,-2.4177128978409104
mp-1147549,Ba4Ca(BiO4)3,-2.376770700375
mp-1228265,Ba4Ca4Cu6Hg2O17,-2.006028990946969
mp-542197,Ba4Ca4Tl3Cu6O19,-1.984480126076388
mp-1228570,Ba4Ca8Cu11CO20,-1.8467407384943184
mvc-15020,Ba4CaCr4Cu2F28,-3.2418467984825643
mp-1228203,Ba4CaCu2CO9,-2.457884201617647
mvc-15237,Ba4CaCu6(HgO8)2,-1.4747853850862067
mvc-13165,Ba4CaFe4Cu2F28,-3.1049482823287176
mp-1229195,Ba4CaGd3(Co4O11)2,-2.2653090088157897
mp-1228205,Ba4CaMn2MoO12,-2.702779498221
mp-1228232,Ba4CaNd3(Co4O11)2,-2.2824699344078963
mp-1228091,Ba4CaTi5O15,-3.4921942723833324
mvc-11885,Ba4CaTl4(Cu3O10)2,-1.4534182340714283
mvc-13172,Ba4CaV4Cu2F28,-3.365518690021025
mp-1228424,Ba4CaZr5O15,-3.633649131249998
mp-1214704,Ba4Cd11Ge12,-0.08845012851851823
mp-1214942,Ba4Ce(RuO4)3,-2.562769988333334
mp-770465,Ba4Ce2O7,-3.1729255360576922
mp-1228697,Ba4CeEu3Tl2(Cu2O9)2,-2.300028079296875
mp-566188,Ba4CeMn3O12,-2.7844367898939995
mp-23063,Ba4Cl6O,-2.98315179461909
mp-1106249,Ba4Co(ReO6)2,-2.6504824589473683
mp-1228155,Ba4CoNi3S8,-1.5069896201562507
mp-1228860,Ba4Cr13O28,-2.3338277532222227
mp-1228199,Ba4Cr2MoWO12,-2.71067422175
mp-1199018,Ba4CrGa2(S3F2)2,-2.5373641208314703
mp-1228217,Ba4Cu11(Te4S)2,-0.7079399215250004
mp-1228061,Ba4Cu2IBrO4,-2.224299047083333
mp-1228302,Ba4Cu2Si21,-0.1979289737037033
mp-1147529,Ba4Cu3BrO6,-1.99190856625
mp-669542,Ba4Cu3Ge20,-0.2754932087037034
mp-1147524,Ba4Cu3IO12,-1.80912830775
mp-1232318,Ba4Cu3MoO12,-2.01926585175
mp-1023127,Ba4Cu3PbO9,-2.004686550661765
mp-1147523,Ba4Cu3ReO12,-2.0730956436250003
mp-1147525,Ba4Cu3SeO12,-1.8110738731796883
mp-1147645,Ba4Cu3SeO6,-1.990123545435268
mp-1214552,Ba4Cu3Si20,-0.2132228727777772
mp-1147655,Ba4Cu3SnO9,-2.134019931250001
mp-1197658,Ba4Cu8P15,-0.4797382238293648
mp-1214524,Ba4Dy(CuO3)3,-2.400205231838236
mp-1228235,Ba4Dy2Cu6NiO15,-2.106773286383929
mp-984788,Ba4Er(RuO4)3,-2.543680128750001
mp-675681,Ba4Er3F17,-4.359008006467916
mp-1228334,Ba4Eu2Cu6O13,-2.067310244250001
mp-560660,Ba4Eu4Zn3PtO15,-2.5775354786574067
mp-1228666,Ba4Fe12Si8ClO35,-2.6433067841168327
mp-1228108,Ba4Fe2MoWO12,-2.59153572675
mp-555458,Ba4Fe2S4I5,-1.6196320664166672
mp-566756,Ba4Fe3(S3F2)2,-2.344787982302059
mp-1195190,Ba4Fe3(Se3F2)2,-2.0251404693425004
mp-1195255,Ba4Fe3Se10,-1.0574215232904411
mp-761692,Ba4Fe4O11,-2.341803724758772
mp-1182448,Ba4Fe9O20,-2.0144330822727268
mp-1214544,Ba4Ga22Sn,-0.1997232801851849
mp-1204862,Ba4Ga2Fe(S3F2)2,-2.5122902596550007
mp-30198,Ba4Ga2O7,-2.774310781955128
mp-29301,Ba4Ga2S7,-1.9590756887259613
mp-1214614,Ba4Ga3Ge20,-0.23191562518518505
mp-1214507,Ba4Ga3Si20,-0.18493817759259226
mp-1228309,Ba4Ga5AgSe12,-1.1372281203693175
mp-1195660,Ba4GaB10H7O24,-2.6635111635218847
mp-1019516,Ba4GaN3O,-1.072307248015555
mp-1228036,Ba4GaSn3,-0.6134629843750004
mp-1214933,Ba4Gd(CuO3)3,-2.3786904400735303
mp-554975,Ba4Gd2Cd3S10,-1.9838543813486849
mp-1228341,Ba4GdY(Cu3O7)2,-2.1847429583653843
mp-21839,Ba4Ge20Au3,-0.3203095859259269
mp-30170,Ba4Ge20Pd3,-0.33947460351851866
mp-1201052,Ba4Ge20Pt3,-0.3768184707407411
mp-1214616,Ba4Ge23,-0.1786906296296296
mp-1228759,Ba4Ge2Pb(Se4Br)2,-1.3044751549264708
mp-1228102,Ba4Ge2Te5Se3,-1.1623828025558036
mp-14002,Ba4GeAs4,-0.9725512801388894
mp-14215,Ba4GeP4,-0.9169644913690479
mp-779519,Ba4Hf3O10,-3.6951431298529407
mp-1189858,Ba4Hf3S10,-2.2578599609191192
mp-756014,Ba4HfO6,-3.227148077954545
mp-1214501,Ba4Ho(CuO3)3,-2.4058179144852945
mp-560380,Ba4Ho(RuO4)3,-2.53972721075
mp-29909,Ba4I6O,-2.0683617382954544
mp-757745,Ba4In2O7,-2.483541559647436
mp-1193666,Ba4In2Te2S5,-1.7256136336137815
mp-1193105,Ba4In2Te2Se5,-1.4231845611258018
mp-622930,Ba4In6O13,-2.3215628485326096
mp-1195568,Ba4InAgS6,-1.8835880293923613
mp-1228372,Ba4InBiO6,-2.184930860486112
mp-1228129,Ba4InSbO8,-2.6939898770238098
mp-17102,Ba4Ir3O10,-2.1510287051470582
mp-754684,Ba4IrO6,-2.4919328747727283
mp-1228239,Ba4La2Cu6O13,-2.20588757305
mp-1228220,Ba4La2SbRuO12,-2.91839926875
mp-684815,Ba4La2Ti3Nb2O18,-3.479422189396552
mp-1229302,Ba4La4Co8O17,-2.33712509375
mp-1228530,Ba4La4Co8O23,-2.347284687403848
mp-1228428,Ba4La4Cu4(BO6)3,-2.8009942906818184
mp-744975,Ba4La6Mn(Co3O10)3,-2.2663149539692005
mp-744583,Ba4La6Mn5In5O30,-2.7070642501793336
mp-743838,Ba4La8Mn11SnO36,-2.8255163975093334
mp-683936,Ba4LaGe3SbSe13,-1.1812074072372156
mp-1228253,Ba4LaPr(Cu3O7)2,-2.1668399137500005
mp-1228142,Ba4LaTi4CrO15,-3.4232390342166674
mp-1228208,Ba4LaTiNb3O15,-3.3775662156423607
mp-1214440,Ba4Li(BN2)3,-1.1321932288771432
mp-1214461,Ba4Li(BiO4)3,-2.2085663315000006
mp-1228761,Ba4Li(IrO4)3,-2.145185399083334
mp-7971,Ba4Li(SbO4)3,-2.571564074500001
mp-1192557,Ba4Li2(CdAs2)3,-0.8323635303333333
mp-1192527,Ba4Li2(CdP2)3,-0.7795355871904761
mp-762032,Ba4Li4Ti19O44,-3.4097342118544605
mp-767511,Ba4Li6Ti19O44,-3.369152828242008
mp-775429,Ba4LiBi3O11,-2.2246446236184205
mp-15472,Ba4LiCu(CO5)2,-2.493009029999999
mp-6011,Ba4LiMo2N7,-0.9926305847614288
mp-18274,Ba4LiNb3O12,-3.22033342825
mp-16792,Ba4LiTa3O12,-3.3840975034999983
mp-6665,Ba4LiW2N7,-1.0644891786900013
mp-757073,Ba4LiY2Cu5O14,-2.2731802349038466
mp-772740,Ba4Lu6O13,-3.64706175375
mp-1147558,Ba4Mg(BiO4)3,-2.329303381500001
mp-1019517,Ba4Mg(SiN3)2,-1.0925814968676912
mp-1201360,Ba4MgC4(N4F)2,-1.4445741982326312
mp-1228584,Ba4MgTa10O30,-3.4397556763888884
mp-1228293,Ba4Mn2Ag2As4O17,-2.1983917573506897
mp-18791,Ba4Mn3O10,-2.5528001517870584
mp-1197784,Ba4MnGa2(S3F2)2,-2.5609669208879406
mp-1204819,Ba4MnIn2(S3F2)2,-2.486385680985981
mp-1202067,Ba4Mo2O6F13,-2.7436517454187994
mp-9705,Ba4Na(BN2)3,-1.1339649113771435
mp-6575,Ba4Na(BO3)3,-3.0662010173529417
mp-559352,Ba4Na(BiO4)3,-2.1966508857500004
mp-1228543,Ba4Na(FeAs)10,-0.477420523400001
mp-1228077,Ba4Na(IrO4)3,-2.048977551
mp-542286,Ba4Na(RuO4)3,-2.27479988325
mp-6273,Ba4Na(SbO4)3,-2.5552325387500003
mp-561052,Ba4Na2CaTi3Si4(SO13)2,-3.171811029002976
mp-1228581,Ba4Na2W2O11,-2.721929925986842
mp-720230,Ba4Na3Nd3P6(O12F)2,-3.303262795303266
mp-1197875,Ba4NaAl2B8(BrO6)3,-3.0016843091898138
mp-1204585,Ba4NaAl2B8(ClO6)3,-3.0932244289059247
mp-560188,Ba4NaAuO8,-1.906555358214286
mp-1199057,Ba4NaB10Cl(O9F)2,-3.1044741073557414
mp-6841,Ba4NaCu(CO5)2,-2.472577576944444
mp-1195423,Ba4NaGa2B8(BrO6)3,-2.839225699189814
mp-1195176,Ba4NaGa2B8(ClO6)3,-2.929976592378148
mp-1201802,Ba4NaGe3S10Cl,-1.6899223378360533
mp-566600,Ba4NaMn2O9,-2.4860313723856247
mp-558153,Ba4Nb2(OF4)3,-3.818535326969682
mp-1229163,Ba4Nb25O40,-2.787228462608694
mp-1214396,Ba4Nb2O9,-3.1995646827500006
mp-1228131,Ba4Nb2WO12,-3.1136973360526317
mp-774719,Ba4Nb3O12,-3.1465406863157903
mp-1228169,Ba4NbCo2MoO12,-2.6411352367500003
mp-1022809,Ba4NbFeO8,-2.95186063125
mp-695140,Ba4NbP4(O9F)2,-2.7756394721879807
mp-1214660,Ba4Nd(IrO4)3,-2.3792825624583336
mp-1214781,Ba4Nd(RuO4)3,-2.4864336178750004
mp-10409,Ba4Nd2Cd3Se10,-1.5553384332072375
mp-560766,Ba4Nd2Cu2O9,-2.727523521544118
mp-1228702,Ba4Nd2Cu6NiO15,-2.0428489890625
mp-1228184,Ba4Nd2Cu6O13,-2.1906479212500005
mp-35986,Ba4Nd3F17,-4.33770598011375
mp-1228289,Ba4Nd4Ti3Mn(Cu2O11)2,-2.9006703754857885
mp-9837,Ba4Nd4Zn3PtO15,-2.822396324398148
mp-1228592,Ba4Nd5Cu9O22,-2.2330476573750007
mp-695553,Ba4Nd7Si12BN27,-1.4362551416358174
mp-1228282,Ba4Nd8Cu3PtO20,-2.977803790416667
mp-565816,Ba4NdMn3O12,-2.642312957769
mp-1228248,Ba4NdY(CuO2)8,-2.03377652625
mp-30169,Ba4Ni3Ge20,-0.28447583888888905
mp-754354,Ba4OF6,-3.9230203834900004
mp-561099,Ba4Os6ClO18,-2.106689589853794
mp-1199731,Ba4P15Au8,-0.4650222146164022
mp-28164,Ba4P2O,-1.5101924136479592
mp-28823,Ba4P3,-1.0028240107397963
mp-1203328,Ba4P3HF24,-3.396761451362768
mp-752906,Ba4Pb3O10,-2.214511944264706
mp-1214438,Ba4Pd,-0.06893957700000009
mp-1147711,Ba4Pd3BrO6,-1.9142300176785716
mp-782050,Ba4PdO6,-2.431920806136364
mp-915377,Ba4Pr(RuO4)3,-2.478001876
mp-1228176,Ba4Pr2Cu6O13,-2.1811873266500004
mp-1228380,Ba4Pr3BiO12,-2.8724145165
mp-1228513,Ba4Pr4Co8O23,-2.2888427912500005
mp-1228619,Ba4Pr4Fe4Cu4O21,-2.44314227152027
mp-695596,Ba4Pr7Si12BN27,-1.4211927798220916
mp-1228179,Ba4PrDy(Cu3O7)2,-2.175489717211538
mp-1228227,Ba4PrEr(Cu3O7)2,-2.176290337788461
mp-1228601,Ba4PrEu(Cu3O7)2,-2.100288819711539
mp-1228407,Ba4PrGd(Cu3O7)2,-2.1664067456730765
mp-1228221,Ba4PrHo(Cu3O7)2,-2.1768301435576927
mp-1228451,Ba4PrLu(Cu3O7)2,-2.178388268365385
mp-565443,Ba4PrMn3O12,-2.632481562894
mp-1228202,Ba4PrNd(Cu3O7)2,-2.1599283986538467
mp-1228206,Ba4PrSm(Cu3O7)2,-2.166808586923077
mp-1228261,Ba4PrTm(Cu3O7)2,-2.179110222596154
mp-1228182,Ba4PrY(Cu3O7)2,-2.172388699519231
mp-1228147,Ba4PrY(CuO2)8,-2.028899946333333
mp-1214403,Ba4Pt,-0.18366429999999986
mp-8727,Ba4PtO6,-2.478665610227274
mp-1228183,Ba4Re2NiO12,-2.5900010236842106
mp-17304,Ba4Ru3O10,-2.3009029836764694
mp-9774,Ba4Sb2O,-1.598544093035713
mp-801028,Ba4Sb2O9,-2.6636812904166667
mp-28238,Ba4Sb4Se11,-1.034649554712172
mp-1228084,Ba4Sc2Cu2O9,-2.81789817007353
mp-1228167,Ba4ScReWO12,-3.0060683027631585
mp-1228157,Ba4ScTi4BiO15,-3.3105932372166658
mp-1229279,Ba4Se4S16O31,-1.4098162017840907
mp-1228313,Ba4Si21Au2,-0.23796578537037075
mp-1228316,Ba4Si22Au,-0.17539162462962934
mp-640551,Ba4Si23,-0.1124249633333334
mp-30101,Ba4Si3Br2,-1.0263839966666666
mp-14001,Ba4SiAs4,-0.9978846625
mp-1228229,Ba4SiGeS8,-1.900396121607144
mp-14214,Ba4SiP4,-0.9698846742857148
mp-1196887,Ba4SiSb2Se11,-1.1122796949739582
mp-1214478,Ba4Sm(CuO3)3,-2.3650201446323527
mp-10410,Ba4Sm2Cd3S10,-1.9781683760855264
mp-636383,Ba4Sm2Cu2O9,-2.7478749524264714
mp-1196927,Ba4Sm3Cl16,-2.777535254550436
mp-9737,Ba4Sm4Zn3PtO15,-2.8433177053240737
mp-693655,Ba4Sm7Si12BN27,-1.4571510866358173
mp-768510,Ba4Sn3O10,-2.6532325254411764
mp-1228355,Ba4SnGe2(S4Br)2,-1.6787347107352943
mp-1228328,Ba4Sr(FeO3)5,-2.26728441435
mp-1228076,Ba4Sr(SnO3)5,-2.60146300815
mp-1228722,Ba4Sr2Dy2Co4O15,-2.6427133821759248
mp-1229271,Ba4Sr2Gd2Co4O15,-2.627105270694444
mp-1228696,Ba4Sr2La2Co4O15,-2.6376949023611105
mp-1228201,Ba4Sr2Lu3(BiO6)3,-2.8777572735833337
mp-1228541,Ba4Sr2Nd2Co4O15,-2.622196756805556
mp-1228582,Ba4Sr2Sm2Co4O15,-2.6305989368055562
mp-1228243,Ba4Sr2Y3(SbO6)3,-3.08527436425
mp-1076896,Ba4Sr4Co3(CuO4)5,-1.971535914444444
mp-1076491,Ba4Sr4Co3Cu5O24,-1.8077068045
mp-1099676,Ba4Sr4CoCu7O24,-1.7401543182500006
mp-1228088,Ba4SrHf5O15,-3.8002264229500007
mp-1228531,Ba4SrRe3ClO15,-2.806610973937916
mp-1228585,Ba4Ta10CoO30,-3.3610260370555562
mp-1228547,Ba4Ta10FeO30,-3.3818653219444434
mp-1228660,Ba4Ta10NiO30,-3.3305802699444462
mp-1192906,Ba4Ta2O9,-3.3758216294166656
mp-676665,Ba4Ta2TiZnO12,-3.291986837333333
mp-6049,Ba4Tb(RuO4)3,-2.5295949946666667
mp-17513,Ba4Tb2Cd3S10,-1.9853961693311415
mp-1147699,Ba4Ti(CuO3)3,-2.410186468112745
mp-1228496,Ba4Ti11O26,-3.521998334532521
mp-15761,Ba4Ti12O27,-3.5221482990406985
mp-29298,Ba4Ti13O30,-3.542972023386524
mp-558894,Ba4Ti2PtO10,-3.02101006240196
mp-771189,Ba4Ti3O10,-3.4481074213235288
mp-1228478,Ba4Ti3PtO12,-3.110516579583334
mp-530879,Ba4Ti4O9,-3.06765333634804
mp-1228218,Ba4Ti5PbO15,-3.3339692436833333
mp-1214645,Ba4Ti6Si4O25,-3.338051666442309
mp-1228335,Ba4TiAl3P4(O5F)4,-3.2023859431943924
mp-15503,Ba4TiAs4,-1.1037423317129642
mp-1228214,Ba4TiNb9O18,-2.9284995387239583
mp-15502,Ba4TiP4,-1.0691988933597882
mp-1228270,Ba4TiSi12(SnO12)3,-3.1815948340476194
mp-1228188,Ba4Tl13Hg3,-0.2706039232500004
mp-561182,Ba4Tl2Cu2HgO10,-1.8651020401315777
mp-684884,Ba4TlBiPb2O9,-1.9817722109558824
mp-1228146,Ba4Tm2Cu6O13,-2.2300993826500006
mp-772408,Ba4Tm6O13,-3.6230153863586967
mp-1229229,Ba4U8As2O33,-3.388004251515958
mp-21686,Ba4UCr2S9,-1.9467336185351567
mp-1190418,Ba4USe6,-1.814907769687501
mp-570453,Ba4W(N2Cl)2,-1.6240752819127269
mp-643409,Ba4Y(CuO3)3,-2.3913920380147062
mp-741593,Ba4Y2Cu4W2O17,-2.3890789421120693
mp-772817,Ba4Y2Cu5O14,-2.2157331755
mp-1228291,Ba4Y2Cu5PdO14,-2.17884305875
mp-1228275,Ba4Y2Cu6NiO15,-2.0978669003124994
mp-20897,Ba4Y2Cu6O13,-2.219433267050001
mp-1228315,Ba4Y2Cu7O15,-2.1124800688839285
mp-1194618,Ba4Y2Fe2O11,-2.8671080270394738
mp-1228213,Ba4Y2FeCu5O14,-2.2449101302884618
mp-779544,Ba4Y2O7,-3.1863934234935893
mp-34578,Ba4Y3F17,-4.343291661051251
mp-1228051,Ba4YCu(WO6)2,-2.82273495075
mp-653337,Ba4Yb(CuO3)3,-2.279085674191176
mp-676767,Ba4Yb3F17,-3.820872949384584
mp-1228154,Ba4YbPr(Cu3O7)2,-2.0986005129807688
mp-1214758,Ba4Zn11Ge12,-0.13246911740740724
mp-1229043,Ba4Zn2CuGe20,-0.2823677075925922
mp-1195127,Ba4Zn4B14Pb2O31,-2.763550656522728
mp-6716,Ba4Zr(RuO4)3,-2.5722221590000003
mp-14883,Ba4Zr3S10,-2.2207790453308824
mp-1228038,Ba4Zr3TiO12,-3.602570100583334
mp-1228044,Ba4ZrNb9O18,-2.954711836953124
mp-769391,Ba4ZrO6,-3.1688891288636367
mp-676617,Ba5(Bi2O3)7,-1.4252645714062495
mp-583509,Ba5(FeS2)9,-1.3078415972851571
mp-643683,Ba5(Ga3H)2,-0.4965912220953842
mp-771208,Ba5(Ga3O7)2,-2.6585325709000007
mp-28252,Ba5(GaS4)2,-2.018623107000001
mp-1204617,Ba5(GaSe4)2,-1.5800068430833334
mp-1195424,Ba5(In2Sb3)2,-0.7237315832222222
mp-615760,Ba5(InSb3)2,-0.8262163447435896
mp-28908,Ba5(RuO5)2,-2.453322036323529
mp-1199927,Ba5(Si2O7)2,-3.1398266755434783
mp-29060,Ba5(SiN3)2,-1.0171418649446151
mp-1214565,Ba5(Sn3Bi2)3,-0.4652603082500008
mp-1096883,Ba5(SnS4)2,-1.846617547000001
mp-28926,Ba5(TiN3)2,-1.1492019386625627
mp-1229286,Ba51(Pd12O5)2,-0.9456709139117646
mp-559534,Ba5Al2In2IrClO13,-2.7104918298406946
mp-1197073,Ba5Al3F19,-4.091860027133704
mp-568809,Ba5Al5Pb,-0.3298728527272727
mp-570677,Ba5Al5Sn,-0.346212034090909
mp-21742,Ba5AlIr2O11,-2.56182454625
mp-1228464,Ba5As2(SO6)2,-2.7142398994345247
mp-10045,Ba5As3,-1.007483436875
mp-556761,Ba5As3ClO12,-2.7536268449171435
mp-1214545,Ba5As3SO12,-2.6045064518601184
mp-703591,Ba5B20(H2O19)2,-2.819366413213632
mp-1199246,Ba5B3BrO9,-3.1088649206250003
mp-560326,Ba5B3CNO9,-2.827548519862104
mp-1201345,Ba5B3ClO9,-3.1762783819172222
mp-557176,Ba5B4(O5F)2,-3.295097497692697
mp-3974,Ba5B4O11,-3.1648158561458333
mp-753124,Ba5Bi3O11,-2.3223770220394733
mp-674987,Ba5Bi5O13,-2.230900305923914
mp-1228869,Ba5BiPb4O15,-2.155752254349999
mp-1228343,Ba5Ca2Nb3O15,-3.22735920235
mp-1228312,Ba5Ca2Ta3O15,-3.36656320855
mp-865528,Ba5Cd2Sb5F,-1.2548880197069237
mp-1228741,Ba5Ce4ZrO15,-3.6048767947500004
mp-1228254,Ba5Co4PtClO13,-2.075081803312917
mp-505813,Ba5Co5ClO13,-2.0733331739379164
mp-1228627,Ba5Co5O13F,-2.135260581768334
mp-24896,Ba5Co5O14,-2.1038742673958324
mp-1204444,Ba5Cr3F18,-3.7157936168334613
mp-1214531,Ba5Cr3O12F,-2.7759742455328573
mp-1200170,Ba5Cr3O13,-2.6282926745833337
mp-29082,Ba5CrN5,-0.8931960588090907
mp-559141,Ba5Cu4ClF17,-3.096393246363826
mp-18296,Ba5Dy8Zn4O21,-3.263815927796053
mp-558566,Ba5Er2ZrAl2O13,-3.50835280375
mp-1214489,Ba5Er8Ni4O21,-3.103761936743421
mp-6416,Ba5Er8Zn4O21,-3.2827676454276324
mp-1228898,Ba5Eu5(Fe5O13)2,-2.49446223125
mp-581206,Ba5Eu8Zn4O21,-2.8026027464802623
mp-1228597,Ba5Fe3W2O15,-2.617575885150001
mp-618964,Ba5Fe4S11,-1.560825844234376
mp-556323,Ba5Fe5O14,-2.2940392476041667
mp-605650,Ba5Ga5Pb,-0.4703085572727274
mp-568967,Ba5Ga5Sn,-0.4873169059090911
mp-1228211,Ba5Ga6,-0.3987596399999999
mp-1215133,Ba5GaRu2O11,-2.49026036506579
mp-1214525,Ba5Gd2ZrAl2O13,-3.45248324375
mp-19485,Ba5Gd8Mn4O21,-3.2419011865813148
mp-16538,Ba5Gd8Zn4O21,-3.199561890427632
mp-557032,Ba5Hf4S13,-2.249209335582385
mp-1214508,Ba5Ho2ZrAl2O13,-3.4998671930978262
mp-6795,Ba5Ho8Zn4O21,-3.274238468059212
mp-1201460,Ba5In3F19,-3.6174379104207413
mp-753422,Ba5In5O12,-2.345440935075757
mp-772019,Ba5La2Cl16,-2.845468955311304
mp-1228223,Ba5La3(GaO4)4,-2.9802294903571425
mp-772221,Ba5La3I19,-1.6073710938888892
mp-1195178,Ba5LaSi6,-0.4791882110416672
mp-1228258,Ba5Li2(TeO5)3,-2.45506603555
mp-566745,Ba5Li2(WO5)3,-2.7844715235500006
mp-1228411,Ba5Li2U3O15,-3.40215764795
mp-1214534,Ba5Lu2ZrAl2O13,-3.5310085754891314
mp-1214642,Ba5Lu8Ni4O21,-3.1270292599013163
mp-1228121,Ba5Mg18Ge13,-0.4002004434722224
mp-5080,Ba5Mg18Si13,-0.2815932913888888
mp-1214612,Ba5MgMnV4(Cl3O7)2,-2.7836054146135485
mp-1228475,Ba5Mn(Co2O7)2,-2.1740885297274986
mp-650764,Ba5Mn3ClO12,-2.500587071720952
mp-1214575,Ba5Mn3O12F,-2.5821051590033344
mp-763829,Ba5Mn5O14,-2.5008012132208326
mp-1214620,Ba5Na(GaSb3)2,-0.7778264650000004
mp-1229142,Ba5Na2Ru3O14,-2.294484187604167
mp-758845,Ba5Nb2O10,-3.1632641948529394
mp-1228322,Ba5Nb2O11,-2.925187145486111
mp-1228715,Ba5Nb3O3F20,-3.7020157523403214
mp-3563,Ba5Nb4O15,-3.2857507991145813
mp-766302,Ba5Nb5O14,-3.046089275729168
mp-1228736,Ba5NbIr4O15,-2.304861034449999
mp-19460,Ba5Nd8Mn4O21,-3.1864153823707886
mp-554501,Ba5Os3ClO15,-2.4037831552920834
mp-628618,Ba5Os3NO18,-2.229451422217778
mp-561125,Ba5P3BrO12,-3.2591245843537413
mp-558349,Ba5P3ClO12,-3.3163718064137417
mp-1228113,Ba5P3O12F,-3.4001563625056472
mp-1204451,Ba5P3O13,-3.2100808177466
mp-17566,Ba5P4,-1.00939854234127
mp-30221,Ba5P5I3,-1.2615940739010982
mp-567378,Ba5P9,-0.8383495267346939
mp-622106,Ba5Pb3,-0.5360218474999998
mp-29787,Ba5Pt2O9,-2.3208710038281257
mp-556721,Ba5Re3BrO15,-2.7672362917187487
mp-556647,Ba5Re3ClO15,-2.8062131587295824
mp-1214601,Ba5Re3IO15,-2.738653550885416
mp-555095,Ba5Re3NO18,-2.5895541050881485
mp-698206,Ba5Re3O16,-2.7021927692708325
mp-558725,Ba5Ru2Br2O9,-2.408644295902778
mp-556443,Ba5Ru2Cl2O9,-2.5165174984872216
mp-561481,Ba5Ru2ClO9,-2.4554935408535297
mp-867790,Ba5Ru2O11,-2.258317051875
mp-17399,Ba5Sb4,-1.0498465069444447
mp-770836,Ba5Sc6O14,-3.5113769395000003
mp-553884,Ba5Si(Br3O2)2,-2.7516644503125005
mp-555087,Ba5Si(Cl3O2)2,-3.1447030484100003
mp-669320,Ba5Si3,-0.3337389671875002
mp-669333,Ba5Si8O21,-3.386092602536764
mp-17325,Ba5Sn3,-0.619401570625
mp-532816,Ba5Sr2Nd8(CuO5)5,-2.8814710901388882
mp-1228552,Ba5SrLa2Fe4O15,-2.8122583947685187
mp-698854,Ba5SrNd2Fe4O15,-2.7941257208796304
mp-559378,Ba5Ta2Cl2O9,-3.3217175765427767
mp-504554,Ba5Ta4O15,-3.457070443697917
mp-1228035,Ba5Ti4MoO15,-3.320220328216667
mp-1214492,Ba5Tm2ZrAl2O13,-3.5193841687500007
mp-1214595,Ba5Tm8Ni4O21,-3.1181463156907885
mp-6054,Ba5Tm8Zn4O21,-3.2968645164802637
mp-25789,Ba5V3ClO12,-3.0551644661076187
mp-1198636,Ba5V4(ClO7)2,-2.9308918264607997
mp-1183410,Ba5V5O14,-2.8637741965625003
mp-1214494,Ba5Y2ZrAl2O13,-3.4813568172282614
mp-861730,Ba5Y3Br19,-2.016144323148148
mp-778387,Ba5Y3F19,-4.240667326392963
mp-1178584,Ba5Y3I19,-1.549466958518519
mp-1199104,Ba5Y8Mn4O21,-3.2729522089497367
mp-1214479,Ba5Y8Zn4O21,-3.2374569451644732
mp-1214540,Ba5Yb2ZrAl2O13,-3.217487113967392
mp-561879,Ba5Yb8Ni4O21,-2.5764076372697367
mp-18204,Ba5Yb8Zn4O21,-2.697996675427632
mp-1195124,Ba5Zn2B4(O6F)2,-3.058844175361867
mp-1228368,Ba6(BiSe2)13,-0.8223479515208333
mp-562155,Ba6(NiO3)5,-1.8453162422596159
mp-1228417,Ba6Al2Rh4O15,-2.3780347043981482
mp-1228122,Ba6Bi2(TeO6)3,-2.3935380342241386
mp-758088,Ba6Bi6O17,-2.2155143300431037
mp-1227977,Ba6Br2N3Cl,-1.367280302533333
mp-766336,Ba6Ca11I34,-1.6054981235784314
mp-1229082,Ba6Ca12Cu15Hg3O37,-2.069702364058219
mp-1229281,Ba6Ca15Cu18Hg3O43,-2.079586646308824
mp-1228306,Ba6Ca2Ir3RuO18,-2.4151911494166662
mp-1228145,Ba6Ca2Ta(RuO6)3,-2.7334909877499998
mp-1228161,Ba6Ca3Cu6Hg3O19,-1.9918600069256762
mp-1228760,Ba6Ca6Cu9Hg3O25,-2.030058953392857
mp-1228574,Ba6Ca6Mg(CO3)13,-2.6708981521153845
mp-680433,Ba6Ca6Tl5Cu9O29,-1.9659937817499995
mp-766337,Ba6CaI14,-1.7119234541666668
mp-532680,Ba6CdAg2(SnS4)4,-1.5209886951724136
mp-541376,Ba6Co25S27,-1.0297397698221984
mp-1228594,Ba6Co6O16F,-2.168961080903104
mp-15387,Ba6Cu11F34,-2.6663926419698045
mp-530144,Ba6Cu34S27,-0.7859423273087685
mp-1228333,Ba6Cu3Hg3O13,-1.89648148105