task_id,composition,formation_energy_per_atom
mp-15186,Er(CuO2)2,-2.1006570585714286
mp-1225120,Er(CuS)3,-1.1364275517410711
mp-4305,Er(CuSi)2,-0.578609763
mp-640885,Er(CuTe)3,-0.5313133499999994
mp-20480,Er(Fe2Ge)2,-0.3232548878571433
mp-1225118,Er(Fe5Si)2,-0.255615230384615
mp-3190,Er(FeB)2,-0.451159747666668
mp-5451,Er(FeGe)2,-0.4477835210000009
mp-19415,Er(FeO2)2,-2.5339332742857144
mp-5688,Er(FeSi)2,-0.6826739769999989
mp-31197,Er(FeSn)6,-0.1126669451923076
mp-570680,Er(GeRh)2,-0.8670278489999994
mp-571296,Er(GeRu)2,-0.6352107450000005
mp-24645,Er(HO)3,-2.3242935628014294
mp-23552,Er(IO3)3,-1.5058104454807697
mp-1184190,Er(Mg4Al3)4,-0.06591443844827585
mp-1225086,Er(MnAl)6,-0.2447432211538464
mp-4487,Er(MnGe)2,-0.4698770809999999
mp-3453,Er(MnGe)6,-0.3201276803846145
mp-4729,Er(MnSi)2,-0.6290538850000005
mp-1103936,Er(MnSn)6,-0.12419133269230764
mp-1104330,Er(Mo3S4)2,-1.2383626311666671
mp-1104287,Er(Mo3Se4)2,-0.6852895955833332
mp-1197536,Er(NO3)3,-1.5551473437223076
mp-510482,Er(Ni2As)2,-0.6223534271428578
mp-1105062,Er(Ni2P)2,-0.8393118906122449
mp-1079335,Er(NiB)2,-0.5692604736666667
mp-4865,Er(NiGe)2,-0.6746156010000007
mp-3455,Er(NiP)2,-1.0072955978571414
mp-1079414,Er(NiSb)2,-0.5267943259999995
mp-1213464,Er(PO)2,-1.4825418518571425
mp-1189979,Er(PO2)3,-2.5467992793928564
mp-27939,Er(PO3)3,-3.0447167892445064
mp-1213544,Er(PO5)2,-1.9003583922527467
mp-1206417,Er(PPd)2,-0.9005690438571434
mp-12058,Er(PRu)2,-1.0301360098571437
mp-755194,Er(ReO4)2,-2.5655613027272697
mp-772838,Er(ReO4)3,-2.43665183578125
mp-3147,Er(SiAu)2,-0.5200453430000003
mp-3907,Er(SiIr)2,-1.0728793350000003
mp-4881,Er(SiNi)2,-0.8545131290000001
mp-21548,Er(SiNi5)2,-0.4474599246153839
mp-3958,Er(SiOs)2,-0.7219860130000001
mp-3218,Er(SiPd)2,-0.9287410049999998
mp-1079518,Er(SiPt)2,-1.0680270809999997
mp-5386,Er(SiRh)2,-1.115126097000001
mp-5022,Er(SiRu)2,-0.9114749070000002
mp-11435,Er(TiGa2)2,-0.5278378669047622
mp-11436,Er(VGa2)2,-0.3987800249999997
mp-1212805,Er(ZnP)3,-0.5939456852040824
mp-1225108,Er10Ga5Co,-0.4350210800000003
mp-1199385,Er10In20Ni9,-0.3958751432478632
mp-1198824,Er10Mn13C18,-0.3345656253048776
mp-1225477,Er10NiSb5,-0.8030498049999997
mp-28472,Er10Ru10C19,-0.264470731955128
mp-37727,Er10Ti6O27,-3.6767291719476765
mp-578771,Er10W2O21,-3.6763566831439394
mp-1198518,Er11(AlGe4)2,-0.800472119047618
mp-1197179,Er11(In3Ge2)2,-0.6424873009523808
mp-1200148,Er11(In3Si2)2,-0.5872799930952375
mp-1197229,Er11(Ni10C)6,-0.28316904672077897
mp-1204723,Er11Cd45,-0.18939082803571414
mp-1203572,Er11Ge10,-0.8386556659523808
mp-1196703,Er11Sn10,-0.7053148573809518
mp-1203313,Er12(ReC3)5,-0.37672840339843816
mp-1212883,Er12Co5Bi,-0.3025064191666671
mp-30970,Er12Co7,-0.2109288636842106
mp-1225474,Er12Ga9Ge11,-0.70566846671875
mp-1212895,Er12In3Fe2,-0.21695152
mp-1203997,Er13Zn58,-0.30569979253521123
mp-571580,Er14(InPd)3,-0.4765743366249993
mp-1225453,Er14Ag51,-0.23359959815384565
mp-685945,Er14Ti10O41,-3.689084198275642
mp-22827,Er15C19,-0.34251823209558885
mp-1196963,Er15Si9C,-0.6894028191499996
mp-1212967,Er16In4Ir4O,-0.8277500501833339
mp-1181630,Er17(TeRu2)3,-0.6021831171153844
mp-686077,Er18Ti14O55,-3.7797566174952113
mp-1212854,Er2(Al3Pd)3,-0.6786943378571425
mp-1212861,Er2(Al3Rh)3,-0.8272868146428566
mp-1225250,Er2(AlNi)5,-0.634985540555556
mp-1225103,Er2(B2Rh3)3,-0.6382033217647063
mp-866685,Er2(Ga3Co)3,-0.4739408082142853
mp-1212874,Er2(Ga3Ir)3,-0.6477804835714284
mp-1213067,Er2(Ga3Rh)3,-0.6928866650000002
mp-1212887,Er2(Ga3Ru)3,-0.5203385210714292
mp-1213024,Er2(GePt3)3,-0.7890001917857147
mp-1197355,Er2(Ni2B)5,-0.476708217549019
mp-1199522,Er2(Ni5B3)3,-0.4210686018269237
mp-1193830,Er2(Ni7B2)3,-0.3518610303448272
mp-4071,Er2(NiB2)3,-0.5851695172727279
mp-9841,Er2(SO4)3,-2.8060014389522063
mp-31352,Er2(SeO3)3,-2.3662866140736614
mp-1237904,Er2(SeO4)3,-1.6716375200459557
mp-773715,Er2(WO4)3,-2.7782997683823534
mp-1228844,Er20Cu6(Pb3S14)3,-1.849256927670456
mp-1213466,Er21(In2Rh5)2,-0.7200732723809519
mp-1213669,Er25Ni49P33,-1.0309934682777036
mp-1184110,Er2AgAu,-0.6032204575000004
mp-1184075,Er2AgHg,-0.4246911350000002
mp-977416,Er2AgIr,-0.6443952074999997
mp-1184131,Er2AgOs,-0.32708064625000066
mp-1184085,Er2AgPt,-0.8297253750000007
mp-862978,Er2AgRu,-0.3935041912499999
mp-1206696,Er2AgSb3,2.3091217908333332
mp-1102875,Er2Al,-0.2942209733333338
mp-1201145,Er2Al17,-0.0969056849999996
mp-567849,Er2Al3Co,-0.4939985308333341
mp-1225048,Er2Al3Cu,-0.4648529433333337
mp-1199551,Er2Al3Fe14,-0.1352607597368421
mp-1225037,Er2Al3Ga,-0.521133323333333
mp-1188179,Er2Al3Ge4,-0.4104387872222222
mp-12004,Er2Al3Si2,-0.5391927671428571
mp-1205974,Er2Al4CoGe2,-0.6375475177777782
mp-1205834,Er2Al4NiGe2,-0.6146454088888894
mp-1184106,Er2AlCd,-0.34727406874999955
mp-1225069,Er2AlCo3,-0.33674994833333355
mp-1225076,Er2AlCu,-0.3251182649999995
mp-1225058,Er2AlFe3,-0.2101241050000008
mp-1212956,Er2AlGe3,-0.6155091295833325
mp-1068244,Er2AlNi2,-0.5773364700000002
mp-10529,Er2AlSi2,-0.7187271960000003
mp-1184084,Er2AlZn,-0.3769035537500001
mp-1225165,Er2As7Rh12,-0.6884737945238103
mp-1102972,Er2Au,-0.6545958891666661
mp-541347,Er2Au5F21,-2.2437563989282148
mp-556986,Er2B2Cl2O5,-3.2806458526003026
mp-1025246,Er2B4C,-0.5885542522023813
mp-756914,Er2B4O9,-3.3042110621944443
mp-1198965,Er2B6Os,-0.6887279808333339
mp-1212905,Er2B6Rh,-0.6596535327777784
mp-1198465,Er2B6Ru,-0.7063388244444455
mp-14420,Er2Be2GeO7,-3.3071508244791668
mp-1212878,Er2Be2SiO7,-3.6069767911458337
mp-772991,Er2Bi2O7,-2.558806365795455
mp-1069613,Er2BiO2,-2.9955118935000002
mp-1212779,Er2Br2O,-1.3407633822500002
mp-1225044,Er2C,-0.3205766195833337
mp-6574,Er2C(NO)2,-2.52605677943
mp-1213505,Er2CO7,-2.3301286774999994
mp-1206454,Er2CdCu2,-0.31159523199999983
mp-1079052,Er2CdGe2,-0.697246423
mp-1184096,Er2CdHg,-0.3827741837500001
mp-862981,Er2CdIn,-0.3909213720833331
mp-1184134,Er2CdOs,-0.2529992200000004
mp-1205644,Er2CdPd2,-0.8181527189999998
mp-3041,Er2CdS4,-2.0561272201785714
mp-532294,Er2CdSe4,-1.4859045080059534
mp-1203663,Er2Co12Ni5,-0.10625207342105256
mp-7788,Er2Co12P7,-0.8057188897619036
mp-2531,Er2Co17,-0.10419728105263236
mp-1225055,Er2Co3Cu,-0.2156122783333328
mp-1006352,Er2Co3Ge5,-0.5707526499999993
mp-569509,Er2Co7,-0.1789210794444445
mp-1190704,Er2Co7B3,-0.4180137466666665
mp-1095140,Er2CoGe2,-0.7506110050000003
mp-1184125,Er2CoIr,-0.558100164999999
mp-568728,Er2CoSi2,-0.7800426659999999
mp-1078190,Er2Cr2C3,-0.3325304123214283
mp-21707,Er2CrS4,-1.97382207875
mp-1225159,Er2CrSbO7,-3.0702226671590904
mp-17699,Er2Cu(B2O5)2,-3.0415971740686265
mp-16057,Er2Cu(GeO3)4,-2.5437411328947377
mp-21160,Er2Cu2O5,-2.633140105138889
mp-1206361,Er2CuAs3,2.4648081108333337
mp-1184091,Er2CuAu,-0.5628407750000006
mp-1080743,Er2CuGe6,-0.39119500666666657
mp-1184124,Er2CuIr,-0.6337151125
mp-1225072,Er2CuNi,-0.3889922024999999
mp-753901,Er2CuO4,-3.1488875385714286
mp-866100,Er2CuOs,-0.3075533112500004
mp-1184092,Er2CuPd,-0.6146329525
mp-862940,Er2CuPt,-0.7971497200000002
mp-862944,Er2CuRu,-0.3812884087499997
mp-1207353,Er2CuSb3,2.470772000833333
mp-1225070,Er2CuSi3,-0.6876449583333338
mp-1184097,Er2CuTc,-0.12936201499999989
mp-1190642,Er2Fe12P7,-0.7250688764285723
mp-567623,Er2Fe14C,-0.08396083933823541
mp-1204517,Er2Fe14Si3,-0.2797198676315792
mp-1724,Er2Fe17,-0.02472896289473912
mp-1225238,Er2Fe17C,-0.0503084079374986
mp-1225775,Er2Fe17C2,-0.07252702416666677
mp-1191671,Er2Fe17C3,-0.0907827566477279
mp-1213007,Er2Fe17H3,-0.09101008185727334
mp-1025354,Er2Fe2Si2C,-0.7028234083928575
mp-1225556,Er2Fe3Cu,-0.09829882666666734
mp-680269,Er2Fe3Si5,-0.70007398025
mp-1225730,Er2Fe4Si9,-0.33659882866666635
mp-1225690,Er2Fe6Co6P7,-0.7908652192857143
mp-9977,Er2FeC4,-0.309801413571428
mp-1225637,Er2FeSbO7,-2.8011385994318165
mp-31095,Er2FeSi2,-0.7214678299999996
mp-647247,Er2Ga10Os3,-0.4118945833333337
mp-1225739,Er2Ga3(Fe7C)2,-0.1523697313095232
mp-1225597,Er2Ga3Cu,-0.5843950633333334
mp-1225643,Er2Ga3Ni,-0.6371133966666663
mp-1225618,Er2Ga6Cu11,-0.2569350463157889
mp-985468,Er2Ga8Co,-0.4712171190909089
mp-1095585,Er2Ga8Fe,-0.4252861290909093
mp-1225533,Er2GaCu,-0.4137186249999996
mp-13643,Er2Ge2O7,-3.091933033068182
mp-1205564,Er2Ge2Ru,-0.7998486889999995
mp-1225777,Er2Ge2S7,-1.4130088889488641
mp-29777,Er2Ge5,-0.5111733178571427
mp-984743,Er2Ge5Rh3,-0.7614440029999997
mp-1188138,Er2Ge5Ru3,-0.6223302889999992
mp-774547,Er2GeO5,-3.4089284893229164
mp-1076961,Er2GeRh3,-0.9172717425
mp-766250,Er2H16S3O20,-1.9604867593928648
mp-557890,Er2Hf2O7,-4.028037453068183
mp-1200853,Er2HfS5,-2.278627961914064
mp-1207058,Er2I2O,-1.1080519202500014
mp-877,Er2In,-0.3426063094444445
mp-1225615,Er2In3Cu,-0.3685313116666673
mp-866004,Er2InAg,-0.3978071483333334
mp-1079059,Er2InAu2,-0.8192854206666667
mp-1078738,Er2InCu2,-0.3960156366666666
mp-1184102,Er2InHg,-0.4403314933333333
mp-1067986,Er2InNi2,-0.544393002666667
mp-12689,Er2InPd2,-0.8799976696666661
mp-861984,Er2IrPd,-0.9551051025
mp-861985,Er2IrRh,-0.9367173824999996
mp-867214,Er2IrRu,-0.6700940512499995
mp-862915,Er2Mg,-0.05050172999999999
mp-1070135,Er2Mg2Ru,-0.2388007969999997
mp-861946,Er2MgAl,-0.2603922700000001
mp-1184086,Er2MgCd,-0.17707003875000016
mp-1184090,Er2MgGa,-0.3230282275000005
mp-862697,Er2MgGe2,-0.7562722319999999
mp-863702,Er2MgIn,-0.2958656483333337
mp-1205516,Er2MgNi2,-0.4033146110000004
mp-1184112,Er2MgOs,-0.1844088137499993
mp-1232129,Er2MgS4,-2.2633497507142866
mp-1103561,Er2MgSe4,-1.6937834249107149
mp-1206813,Er2MgSi2,-0.7035131880000002
mp-1184126,Er2MgTc,-0.03452724000000007
mp-1212787,Er2MgTiO6,-3.7310142344166666
mp-983556,Er2MgTl,-0.2060298137500003
mp-1191019,Er2Mn12P7,-0.7122205916666671
mp-1213058,Er2Mn17C3,-0.09810752801136212
mp-1225596,Er2Mn3Ga,-0.08530352000000008
mp-1225740,Er2Mn3Sb3O14,-2.4977827070627283
mp-622190,Er2Mn3Si5,-0.6335152589999999
mp-1225658,Er2MnGa3,-0.4683141833333331
mp-1225595,Er2MnS4,-1.9862497480357144
mp-3776,Er2Mo2C3,-0.37405469375000017
mp-1203166,Er2Mo3H2Se2O17,-2.2227743838722107
mp-1212977,Er2Mo4O15,-2.6033852411309515
mp-510301,Er2MoO6,-3.252534936666668
mp-756393,Er2Nb2O7,-3.415490072613637
mp-1202070,Er2Nb2S7O30,-2.394988172827744
mp-1202972,Er2Nb3Ge4,-0.7287163391666659
mp-542718,Er2Ni12As7,-0.5277236759523819
mp-540772,Er2Ni12P7,-0.7710146016666661
mp-30608,Er2Ni17,-0.20242448842105287
mp-1080713,Er2Ni2Sn,-0.6078266910000003
mp-1200559,Er2Ni7,-0.4044875005555563
mp-1087228,Er2NiAs2,-1.2238893739999994
mp-862992,Er2NiIr,-0.700887762499999
mp-867344,Er2NiOs,-0.35596328874999994
mp-862615,Er2NiRu,-0.44814010124999903
mp-1212954,Er2NiRuO6,-2.6185544167500003
mp-1079596,Er2NiSn6,-0.4422719588888889
mp-1213006,Er2OsC2,-0.4071538165000007
mp-867213,Er2OsPd,-0.6058147362500002
mp-772958,Er2P4O13,-3.17651818906955
mp-1225638,Er2P7Rh12,-0.9266381854761898
mp-755723,Er2Pb2O7,-2.5641774803409088
mp-1225956,Er2PbS4,-2.0152415285714294
mp-569786,Er2PbSe4,-1.476679713125
mp-31090,Er2Pd2Pb,-0.8411962109999997
mp-983555,Er2PdAu,-0.8954810675000004
mp-1184099,Er2PdPt,-1.11416729
mp-983581,Er2PdRh,-0.9310986425000004
mp-866281,Er2PdRu,-0.7033730812500005
mp-30610,Er2Pt,-0.9810132441666668
mp-1184114,Er2Pt2O5,-1.9068123440277767
mp-756440,Er2Pt2O7,-2.4924172194318186
mp-1025362,Er2Re2Si2C,-0.6203298305357156
mp-1204807,Er2Re3Si5,-0.5855112520000005
mp-1201657,Er2ReB6,-0.661222992222222
mp-20799,Er2ReC2,-0.4494422594999989
mp-30902,Er2Ru2O7,-2.6174444598863644
mp-1184081,Er2RuAu,-0.6313661862500002
mp-1184144,Er2RuPt,-0.8258639312499998
mp-863666,Er2RuRh,-0.6845922212499991
mp-8762,Er2S2O,-3.047488777374998
mp-2234,Er2S3,-2.467907088104167
mp-1197221,Er2S3O20,-1.2514476698875
mp-12671,Er2SO2,-3.6528522733125
mp-772137,Er2Sb2O7,-2.8473504880681815
mp-1225518,Er2SbO2,-3.0226861815000015
mp-1184138,Er2Sc2O5,-3.2442074318055543
mp-1212960,Er2Sc3Si4,-0.8234518852777768
mp-13975,Er2SeO2,-3.425303594218751
mp-7064,Er2Si2O7,-3.717705388068182
mp-1226117,Er2Si2PbO8,-3.2737894312820512
mp-1225750,Er2Si3,-0.6015053140000006
mp-1225562,Er2Si3Ni,-0.6788301266666673
mp-1212897,Er2Si3Pd,-0.8737303041666671
mp-4289,Er2Si3Rh,-0.9275707358333336
mp-1212966,Er2Si4CN6,-1.3952576827330767
mp-1106326,Er2Si4Mo3,-0.681711379999999
mp-1188596,Er2Si5Ni3,-0.7801985779999988
mp-1212876,Er2Si5Rh3,-0.9612680580000004
mp-8808,Er2Si5Ru3,-0.8466512069999993
mp-1225524,Er2SiGe,-0.8243492937500001
mp-555983,Er2SiO5,-3.8535376295312496
mp-1077251,Er2SiRh3,-0.9984950150000008
mp-555990,Er2SiSO4,-3.4952013186328124
mp-17633,Er2SiSeO4,-3.3586208166992204
mp-3688,Er2Sn2O7,-3.0481856185227283
mp-1105178,Er2Sn5,-0.4772542392857138
mp-557806,Er2Tc2O7,-2.849603897613638
mp-1184130,Er2TcAg,-0.15197424250000058
mp-581795,Er2Te4O11,-2.32421609375
mp-559304,Er2Te5O13,-2.2159715875625
mp-1178355,Er2TeO2,-3.2627134804999995
mp-774557,Er2TeO6,-3.055080138611112
mp-1225541,Er2TeS2,-2.1182814436250004
mp-1225774,Er2ThOF10,-3.979539800225
mp-1225949,Er2Ti12(CuO4)9,-2.7288352533050846
mp-5889,Er2Ti2O7,-3.7967100810984857
mp-510085,Er2Ti3Si4,-0.8205425552777778
mp-774567,Er2TiO5,-3.9170828444270835
mp-863667,Er2TlAg,-0.3399580462500005
mp-861628,Er2TlCd,-0.3211047200000001
mp-1192137,Er2TlCu3S5,-1.3989523609375003
mp-1184101,Er2TlHg,-0.3846245187500004
mp-1184088,Er2TlIn,-0.3635579220833338
mp-1184108,Er2TlZn,-0.30496624750000034
mp-1225804,Er2U3O11,-3.666927401484375
mp-1225609,Er2US3O2,-2.9470164405859367
mp-1238453,Er2V10O53,-0.9991959087115384
mp-566468,Er2V2O7,-3.2604213189772717
mp-1225732,Er2VFeO6,-2.94419754425
mp-567056,Er2WO6,-3.336286925138889
mp-30963,Er2Zn17,-0.21716859763157895
mp-1184083,Er2ZnAg,-0.3472113312500005
mp-983908,Er2ZnAu,-0.6114015512499997
mp-983583,Er2ZnCu,-0.2996801637500002
mp-1184077,Er2ZnGa,-0.4754050737500002
mp-1184082,Er2ZnHg,-0.3890558387500005
mp-862788,Er2ZnIn,-0.3876020695833336
mp-862789,Er2ZnIr,-0.6583691862500007
mp-861636,Er2ZnOs,-0.3255532225
mp-862895,Er2ZnRu,-0.3980977675000004
mp-1192811,Er2ZnS4,-2.079436334821429
mp-862914,Er2ZnTc,-0.17926040374999985
mp-1178353,Er2Zr2O7,-3.881433250795455
mp-675556,Er2Zr8O19,-3.7880934159913777
mp-1197488,Er2ZrS5,-2.267715301601563
mp-1225719,Er3(Al2Fe)2,-0.3784972850000001
mp-1212920,Er3(Al3Os)4,-0.5863978989473687
mp-1212925,Er3(Al3Ru)4,-0.6540029857894737
mp-17141,Er3(AlNi3)2,-0.5872807613636362
mp-1078499,Er3(CoGe2)2,-0.7142164605555551
mp-567621,Er3(CuGe)4,-0.6223759368181816
mp-5454,Er3(CuSi)4,-0.639466385
mp-1103053,Er3(CuSn)4,-0.4837268104545448
mp-1103481,Er3(FeGe)4,-0.4938572704545459
mp-1190853,Er3(GaNi3)2,-0.5691485822727277
mp-1212969,Er3(GeRh)2,-0.9377169025
mp-1205952,Er3(In2Co)2,-0.3701721342592595
mp-570798,Er3(P3Pd10)2,-0.7375079219950749
mp-1193806,Er3(SbPd2)4,-0.8266635383333333
mp-1212872,Er3(Si3Pd10)2,-0.8324362422413797
mp-5354,Er3(Si3Ru)4,-0.6412489142105268
mp-1192164,Er3(SiNi3)2,-0.6764413068181819
mp-31181,Er3Al2,-0.32683226199999993
mp-1201730,Er3Al2Ni6H7,-0.518857049463333
mp-1205920,Er3Al3CoGe2,-0.7317737427777773
mp-1213214,Er3Al3Cr2O12,-3.4571362585000003
mp-12388,Er3Al3NiGe2,-0.7424409183333327
mp-3384,Er3Al5O12,-3.7281026852500014
mp-568021,Er3AlC,-0.4310428207500003
mp-1017558,Er3AlN,-1.0187381594760012
mp-1190746,Er3AlNi8,-0.4742278079166671
mp-983604,Er3As,-0.3815737800000001
mp-560278,Er3B5O12,-3.381002484916668
mp-1191731,Er3B7W,-0.624817377878787
mp-1192242,Er3BeCrS7,-1.9408547452864584
mp-1203719,Er3C4,-0.34823522371428584
mp-1181434,Er3Co11B4,-0.3855162223148143
mp-21951,Er3Co29(Si2B5)2,-0.4200709916666669
mp-1212859,Er3Co2Si3,-0.7625109481249996
mp-1196873,Er3Co4Ge13,-0.4061771502500001
mp-568196,Er3CoSi3,-0.796958942142857
mp-14503,Er3CrB7,-0.6367735096969692
mp-18420,Er3CrS6,-2.1178235059375
mp-1105955,Er3Cu3Sb4,-0.692429671
mp-555081,Er3CuGeS7,-1.8033888844531256
mp-558980,Er3CuSiS7,-1.891452017369792
mp-1212880,Er3Fe2Si3,-0.683532822500001
mp-566912,Er3Fe5O12,-2.6891669017500006
mp-1190715,Er3FeB7,-0.6379833506060609
mp-1104653,Er3FeGe3,-0.6639723935714282
mp-12837,Er3FeSi3,-0.751261737857143
mp-1184165,Er3Ga,-0.22624043625000034
mp-1213476,Er3Ga15Ru4,-0.4973871495454538
mp-1198546,Er3Ga2,-0.5392998489999996
mp-1213152,Er3Ga2Ge3,-0.7066010956250004
mp-1197972,Er3Ga5,-0.636252801875
mp-12236,Er3Ga5O12,-2.9971943092500006
mp-1104332,Er3Ga8Au3,-0.5152688096428574
mp-1104360,Er3Ga8Ir3,-0.6438477653571419
mp-1225820,Er3Ga8Ni3,-0.5506972567857139
mp-1104574,Er3Ga8Rh3,-0.7001783817857147
mp-1105029,Er3Ga9Pt2,-0.6497702453571428
mp-10274,Er3GaC,1.1837662952499997
mp-1191530,Er3GaCoS7,-1.832213858203125
mp-1191780,Er3GaNiS7,-1.832331445286459
mp-31115,Er3GaO6,-3.6358486022500003
mp-7290,Er3GaS6,-2.1215149849374995
mp-1184186,Er3Ge,-0.29079562749999965
mp-1203775,Er3Ge13Ir4,-0.49119108525
mp-1203201,Er3Ge13Os4,-0.3278859917499993
mp-1204515,Er3Ge13Rh4,-0.5250449437500002
mp-1198321,Er3Ge13Ru4,-0.4271070017500008
mp-1105754,Er3Ge3Ru2,-0.7796522756249997
mp-1711,Er3Ge4,-0.7687991414285713
mp-1184154,Er3Hg,-0.1449454987500003
mp-1184184,Er3In,-0.2463348683333333
mp-1106153,Er3In5,-0.4079657658333336
mp-10275,Er3InC,1.6055141085833329
mp-31058,Er3InN,-1.089138180142666
mp-1189478,Er3Ir,-0.6055518275000003
mp-1196567,Er3Ir2,-0.842039765
mp-1184196,Er3Lu,-0.004768628749999948
mp-1225566,Er3Mg,-0.014746746249999719
mp-1225802,Er3Mn3Ga2Ge,-0.3671320888888896
mp-570867,Er3Mn3Ga2Si,-0.36374639499999895
mp-1191003,Er3MnB7,-0.6512240237878782
mp-1181827,Er3NF10,-3.512338742448572
mp-1201895,Er3Ni19B10,-0.4397075472395828
mp-540546,Er3Ni2,-0.3816296630000001
mp-17168,Er3Ni7B2,-0.5317463952777773
mp-1213162,Er3NiGe2,-0.7952030908333342
mp-1184205,Er3Np,0.6705488115625009
mp-560114,Er3O2F5,-4.403850378095
mp-1212915,Er3OF10,-3.712239132725
mp-1184179,Er3P,-0.32133445428571417
mp-9149,Er3P4Pd7,-0.9935532652551028
mp-1184178,Er3Pb,-0.24778990624999955
mp-34580,Er3Pb4F17,-3.607809284592917
mp-20430,Er3PbC,1.6575095052500004
mp-12545,Er3Pd2,-0.7630615620000001
mp-1104774,Er3Pd4,-0.9673279771428572
mp-1189835,Er3Pt,-0.730022993125
mp-1104136,Er3Pt4,-1.2636619364285713
mp-1191966,Er3ReB7,-0.6494564558333322
mp-11437,Er3Rh,-0.5510105525000002
mp-1198715,Er3Rh2,-0.8101605190000003
mp-31198,Er3Ru2,-0.3095608040000002
mp-1225708,Er3S2OF3,-3.6490634419938894
mp-1225522,Er3S3OF,-3.1238670818284366
mp-1105695,Er3Sb4Au3,-0.7785295169999997
mp-772087,Er3Sb5O12,-2.6902607207500004
mp-1212828,Er3SbO7,-3.464804024886364
mp-1213255,Er3Sc2Al3O12,-3.845761634375
mp-1225623,Er3ScS6,-2.4220310699375007
mp-1201817,Er3Si11Pt23,-0.8644609836486483
mp-1201402,Er3Si13Ir4,-0.5959710297500009
mp-1202967,Er3Si13Os4,-0.4590258605000002
mp-569818,Er3Si3Ni,-0.8298420828571429
mp-542038,Er3Si3O10F,-3.747112396099412
mp-555942,Er3SiSe2O10F,-3.0756858556398528
mp-1184177,Er3Sn,-0.3788281424999997
mp-1079090,Er3Sn7,-0.5136738630000004
mp-756277,Er3TaO7,-3.90466428625
mp-1225523,Er3Th,0.031749938749999984
mp-1189719,Er3Tl2Cu5S8,-1.325677809305556
mp-21028,Er3TlC,1.6279290922500005
mp-1213670,Er3TlS6,0.6127863985624998
mp-1184192,Er3Tm,-0.006420505000000354
mp-31475,Er4(Al8Pt3)3,-0.9057539810810816
mp-772497,Er4(B2O5)3,-3.39493440195
mp-1204871,Er4(GeO5)3,-2.581349003579545
mp-1212928,Er4Al,0.5166512430000004
mp-1225555,Er4AlSi3,-0.4432911700000002
mp-1204549,Er4BClO7,-3.7637983708597416
mp-1212833,Er4C7,-0.2972891423863628
mp-1212909,Er4CdIr,-0.5384207962500002
mp-1212924,Er4CdNi,-0.3164409324999997
mp-1212944,Er4CdPd,-0.4703314012500002
mp-1212949,Er4CdPt,-0.6304822570833336
mp-1225577,Er4CdS7,-2.1718930236197926
mp-1213035,Er4Co,0.2964574239999997
mp-1225765,Er4Co3,-0.2020751990476196
mp-1202869,Er4CoB13,-0.5017548617592603
mp-1225666,Er4CrS7,-2.1497947390364587
mp-1225648,Er4CrSe7,-1.5471892891796877
mp-1225610,Er4Cu5P7,-0.8073057890625002
mp-1213030,Er4Fe,0.42853877799999934
mp-1226270,Er4Fe29Si5,-0.12936007710526326
mp-1225867,Er4Fe34C3,-0.06177335893292826
mp-1225645,Er4FeS7,-2.092157007369792
mp-1106190,Er4Ga12Ni,-0.5256225141176467
mp-1181425,Er4Ga12Pd,-0.5670187682352941
mp-1212821,Er4Ga12Pt,-0.5875177029411764
mp-862806,Er4Ga16Co3,-0.494283707391304
mp-1184507,Er4Ga21Ni10,-0.5017201074285716
mp-1189162,Er4Ge6Ir7,-0.8773034317647059
mp-1189287,Er4Ge6Os7,-0.4263977202941175
mp-1106353,Er4Ge6Rh7,-0.9535803929411758
mp-541637,Er4I5,-0.9312642611111108
mp-13508,Er4In(NiGe2)2,-0.7721870248484848