task_id,composition,formation_energy_per_atom
mp-1227160,CaTmMn2O6,-2.812101088192
mp-1183538,CaTmO3,-2.9888283742500006
mp-1183593,CaTmPd2,-0.7959495743750011
mp-866226,CaTmPt2,-1.0815833818750002
mp-1183550,CaTmRh2,-0.6595147518750002
mp-1183568,CaTmZn2,-0.2871823118750001
mp-567297,CaU(MoO4)4,-2.518485299204545
mp-9360,CaU(PO4)2,-3.241979046815475
mp-554227,CaU(SeO4)2,-2.5064535662239584
mp-1078571,CaU2(PO2)2,-2.1637404218650813
mp-1228040,CaU2(PO9)2,-1.6447964588819868
mp-1202413,CaU2(SiO8)2,-2.1044478872619057
mp-1213952,CaU2S5,-1.878205010039064
mp-1215077,CaU2Si2(HO3)4,-2.7042368283085714
mp-730691,CaU2Si2H12O17,-2.379257560652647
mp-1198547,CaU2Si2O17,-2.0402555856250006
mp-1196876,CaU2V2O17,-1.9777607700568185
mp-1182827,CaU3(CO10)2,-1.7930310537499992
mp-1227253,CaU3Ti8O24,-3.59533649974537
mp-1182619,CaU4O17,-2.4827319044886385
mp-1198907,CaUCu(PO7)2,-1.9574278239097744
mp-1227064,CaUF6,-3.9742770380800003
mp-1213956,CaUI6,-1.0878409884374998
mp-3960,CaUO4,-3.7099412070833337
mp-33320,CaUS2,-1.4946299051562502
mp-1227094,CaUTi2O7,-3.5676986785984868
mp-1043355,CaV(GeO3)2,-2.474286674500001
mp-1045800,CaV(PO3)4,-2.815444544781746
mp-1043605,CaV(Si2O5)2,-3.1448214412499995
mp-1202545,CaV(Si2O7)2,-2.267481694
mp-1133299,CaV(SiO3)2,-3.143855921000001
mvc-12822,CaV2(BiO5)2,-2.1067346201666672
mp-1041444,CaV2(CuO4)2,-2.121101236153847
mp-1049264,CaV2(PO4)2,-2.8019600993681317
mp-1214166,CaV2(PO4)3,-2.82444886827381
mp-566640,CaV2(PO5)2,-2.8226884179523815
mp-19632,CaV2CoO7,-2.4666888284090898
mp-566974,CaV2CuO7,-2.3711487443560606
mvc-12291,CaV2Ni2(P2O9)2,-2.4533914636507945
mp-1193743,CaV2O10,-1.20154468
mp-540837,CaV2O4,-2.804991812142858
mp-19305,CaV2O5,-2.80486154296875
mvc-11947,CaV2O6,-2.5813120222222232
mp-743511,CaV2P2(H4O7)2,-2.161425017342433
mp-25793,CaV2P2O9,-2.9107745809311223
mp-735589,CaV2P3HO12,-2.7517913776341354
mvc-11311,CaV2S5,-1.401010054726564
mp-1044537,CaV3(P2O7)2,-2.7628865383441563
mp-19347,CaV3O7,-2.7171819801136365
mp-1047854,CaV3P3O13,-2.8327763467589286
mp-25168,CaV4(AgO6)2,-2.217127284078949
mp-1189284,CaV4(CoO4)3,-2.178715962125
mvc-12294,CaV4(CoO7)2,-2.1925568817857144
mp-542267,CaV4(CuO4)3,-2.1124071371250013
mvc-12278,CaV4(CuO7)2,-2.0538427500793643
mp-1188629,CaV4(PdO4)3,-1.973534468125
mp-1227505,CaV4Co(CuO6)2,-2.148729394625001
mp-1048685,CaV4O10,-2.566042104666667
mp-1044005,CaV4O6,-2.4768400913636355
mvc-12238,CaV4O8,-2.6126357844230768
mp-18866,CaV4O9,-2.6454538859821426
mp-775527,CaV5H19O23,-1.8078229097922922
mvc-2603,CaV5O7,-2.3993887100961544
mp-1227738,CaV8O24,-1.5942621826515155
mp-1042925,CaVAs2O7,-2.26054627965909
mvc-5576,CaVAsO5,-2.49289515828125
mp-565311,CaVBiO5,-2.5664050760937487
mvc-14106,CaVBiO6,-2.1544155527777766
mp-1213971,CaVCuHO5,-2.205781747485556
mvc-3446,CaVF4,-3.556795645376668
mvc-14225,CaVF5,-3.679569589778571
mvc-15849,CaVF6,-3.4802919293300003
mp-25785,CaVNiP2O9,-2.6744849211096926
mvc-13158,CaVO3,-2.9405684007500006
mvc-5422,CaVP2O7,-2.923057133230518
mp-1201439,CaVSi4(H2O5)3,-2.40105312548037
mp-1214832,CaVSi4H12O11,-1.7260006121444824
mp-1198008,CaVSi4H8O15,-2.421983008455517
mp-1182493,CaVSi4O15,-2.059319751130952
mp-1213869,CaVSiO5,-3.1158465098437507
mp-1067260,CaW,0.9464063837500004
mvc-4914,CaW2O5,-2.09162719609375
mp-1042313,CaW2O7,-2.2993186276250013
mp-1044516,CaW3O7,-2.0448578751136366
mp-1041414,CaW4O9,-1.9307636277678577
mvc-2873,CaW5O7,-1.0968707677884617
mp-1213997,CaW6NCl18,-1.3760190343676924
mvc-14340,CaWF4,-2.91370843621
mvc-14218,CaWF5,-3.277990255492857
mvc-15846,CaWF6,-3.3787850830799995
mp-989616,CaWN3,-0.8720447749280013
mvc-2857,CaWO2,-1.941257133125
mvc-3996,CaWO3,-2.619309531249999
mp-19426,CaWO4,-2.73015041875
mp-1214430,CaY(CO4)2,-1.9635678765625
mp-1227308,CaY2(GeO3)4,-2.8377398398684215
mp-1227185,CaY2BeO5,-3.5919734243055554
mp-753815,CaY2O4,-3.756576080357143
mp-1227117,CaY3Ti4O12,-3.6297280109583343
mp-1213913,CaY4Sb3O14,-3.029477645909091
mp-1096336,CaYAg2,1.588903743125
mp-1227119,CaYAl3O7,-3.5710069371875
mp-1227044,CaYAlO4,-3.5981648674999995
mp-1213894,CaYBO4,-3.5391449259523804
mp-1183556,CaYCd2,-0.363880821875
mp-1227159,CaYGa3O7,-2.829255183854167
mp-866223,CaYHg2,-0.5382070143749997
mp-1097496,CaYIn2,1.643112968958333
mp-1036378,CaYMg14O16,-2.9862873621093744
mp-1096179,CaYMg2,1.845494485625
mp-1038002,CaYMg30O32,-3.027008442304687
mp-1023319,CaYMg6,-0.05799062593749984
mp-1227126,CaYMn2O6,-2.7873731501920007
mp-1227108,CaYNb2O7,-3.3337462564772724
mp-1183544,CaYO3,-2.85217292425
mp-1227362,CaYP7O20,-2.9092978818103443
mp-1096135,CaYPb2,1.4893582956249998
mp-1183551,CaYPd2,-0.7816328843750009
mp-1183571,CaYPt2,-1.0545002168750006
mp-865002,CaYRh2,-0.593859079375
mp-1213910,CaYSiO5,-3.2872316717187493
mp-1227099,CaYTi2O6,-3.6254265723333363
mp-1093735,CaYTl2,1.570211683125
mp-1183583,CaYZn2,-0.306060536875
mp-1227219,CaYb2(GeO3)4,-2.519554975394737
mp-22161,CaYb2O4,-2.9225517167857147
mp-1227047,CaYb3,0.009013658125000212
mp-1227085,CaYb3(InGe2)2,-0.5851866314166667
mp-1227162,CaYb3Mn4O12,-2.660356820816999
mp-1227028,CaYbAl4,-0.3357074895833338
mp-1183573,CaYbCd2,-0.369049161875
mp-1183612,CaYbEu2,0.035973823124999534
mp-1183565,CaYbGa2,-0.4651452693749998
mp-1183588,CaYbHg2,-0.591096211875
mp-1183625,CaYbIn2,-0.4735005385416669
mp-541277,CaYbInS4,-1.6445688149404774
mp-541276,CaYbInSe4,-1.2039369082440479
mp-1183582,CaYbPb2,-0.5158725843749998
mp-1183592,CaYbPd2,-0.7675429993750003
mp-1183595,CaYbTl2,-0.4665537343750002
mp-1183577,CaYbZn2,-0.26575769687499995
mp-30483,CaZn,-0.2445540587499999
mp-1078391,CaZn(CO3)2,-2.2673407507500003
mp-12326,CaZn(GeO3)2,-2.3797515655000003
mp-6693,CaZn(SiO3)2,-3.047924266999998
mp-18567,CaZn11,-0.1614320593749999
mp-672227,CaZn13,-0.13373894803571446
mp-1236921,CaZn2(BrO)6,-0.4520640203333334
mp-1202252,CaZn2(H5O4)2,-1.6652894932714284
mp-634817,CaZn2(PO)2,-0.955612989183674
mp-18308,CaZn2(PO4)2,-2.719962403983516
mp-1182035,CaZn2(PO5)2,-2.050474136619047
mp-722941,CaZn2H12(BrO)6,-1.3487035958681484
mp-1181954,CaZn2O8,-0.8878681365909077
mp-1084796,CaZn3Se4,-0.9098855996093752
mp-1227020,CaZnAg,-0.31866292916666633
mp-24018,CaZnAsHO5,-2.190737512485556
mp-1096705,CaZnAu2,0.5837353093750002
mp-1214021,CaZnF2,-2.74186406497
mp-5104,CaZnF4,-3.42640809371
mp-1227168,CaZnFe(AsO5)2,-1.7287009823333337
mp-16263,CaZnGe,-0.5290694191666668
mp-1227007,CaZnO2,-2.42136584125
mp-1183540,CaZnO3,-1.81646180125
mp-722378,CaZnP2H5O8,-1.9088729638168065
mp-1096880,CaZnPb,-0.3662157058333333
mp-1213948,CaZnPd,-0.6289518800000001
mp-7204,CaZnSO,-2.220052326953125
mp-1018089,CaZnSe2,-1.1648854724218751
mp-16266,CaZnSi,-0.4495154841666669
mp-554905,CaZnSi3O8,-3.1262313740384613
mp-696853,CaZnSiH2O5,-2.506525434099
mp-1105632,CaZnSiO5,-2.3731397585937497
mp-31160,CaZnSn,-0.5071363408333328
mp-554495,CaZr(PO4)2,-3.2963081759821438
mp-1214457,CaZr(SiO3)6,-2.388117430576924
mp-1227884,CaZr2PbO6,-3.2512759450000006
mp-556440,CaZr4(PO4)6,-3.26932614629592
mp-554190,CaZr4O9,-3.7786657609821424
mp-559642,CaZrAl9BO18,-3.462988944055556
mp-1025456,CaZrF6,-4.168530480579999
mp-644295,CaZrGeO5,-3.15558307171875
mp-1029267,CaZrN2,-1.6762165272316665
mp-1227538,CaZrNbFeO7,-3.122301520795455
mp-4571,CaZrO3,-3.6872519527500014
mp-631394,CaZrPd,0.7643149975000002
mp-861662,CaZrRh2,-0.573143446875001
mp-7781,CaZrS3,-2.1348721404375013
mp-7079,CaZrSi2O7,-3.522407888750001
mp-1227600,CaZrSi3H4O11,-2.8259401501615
mp-1214069,CaZrSi6H2O15,-2.919655558139598
mp-1204163,CaZrSi6O17,-2.9521652517499994
mp-1227163,CaZrTi2O7,-3.6390750222348487
mp-1226968,CaZrV2O8,-2.983331678125001
mp-1025377,Cd(AgI2)2,-0.4280963592857144
mp-754454,Cd(AgO2)2,-0.648612642142856
mp-7128,Cd(AsO3)2,-1.7206920280555549
mp-1190591,Cd(AsO4)4,-0.7337737926190477
mp-29169,Cd(AuF4)2,-1.707617647229091
mp-557715,Cd(AuF6)2,-1.498045035952
mp-778103,Cd(BO2)2,-2.4653454794047613
mp-676545,Cd(Bi9O14)2,-1.0604834450000005
mp-541433,Cd(BiO2)2,-1.5679865833928568
mp-1182026,Cd(Br3N2)2,0.9329009204981824
mp-1068359,Cd(BrN)2,1.4290694460479998
mp-1181899,Cd(BrO2)2,-0.5281655999999997
mp-11646,Cd(C2N3)2,0.0985452391563642
mp-1214070,Cd(C5N)12,1.074631789608766
mp-34656,Cd(CN)2,0.20140080454799966
mp-1214952,Cd(CO)6,0.256865178846154
mp-555064,Cd(CO2)2,-1.5814232610714285
mp-1182262,Cd(ClO2)2,-0.3898492253957144
mp-771736,Cd(CoO2)2,-1.3667233828571437
mp-1147639,Cd(Cu3O4)2,-1.0028919956666669
mp-772099,Cd(CuO2)2,-1.0951728157142853
mp-1096867,Cd(CuSe)2,-0.1992791084375
mp-24940,Cd(FeO2)2,-1.7689591507142859
mp-36641,Cd(Ga3Te5)2,-0.3377968638235295
mp-1213982,Cd(GaCl4)2,-1.5450388505527275
mp-3443,Cd(GaO2)2,-2.049742330714285
mp-4452,Cd(GaS2)2,-1.0655260630357142
mp-3772,Cd(GaSe2)2,-0.6217210713392858
mp-13949,Cd(GaTe2)2,-0.378184135
mp-604337,Cd(HN2)4,-0.11522035228999965
mp-625094,Cd(HO)2,-1.3931059159479993
mp-1079041,Cd(IN)4,1.9372153783866668
mp-27640,Cd(IO3)2,-1.0428668677777782
mp-616218,Cd(In2I3)2,-0.4945604930303034
mp-559200,Cd(InS2)2,-0.9751674318452379
mp-22304,Cd(InSe2)2,-0.5760059408630954
mp-21374,Cd(InTe2)2,-0.3765962159523809
mp-1104677,Cd(Mo3S4)2,-1.0094140025000011
mp-1103966,Cd(Mo3Se4)2,-0.4791625155833335
mp-1215014,Cd(N2Cl)6,1.6876804303621056
mp-1181997,Cd(N2Cl3)2,0.4507519487199997
mp-1101823,Cd(N2O3)2,0.4502403779981808
mp-1070147,Cd(NCl)2,1.0909327287440005
mp-27198,Cd(NO3)2,-1.09427411414
mp-1182373,Cd(NO4)2,-0.5822595870236356
mp-1192817,Cd(NO5)2,-0.4471726720969225
mp-770597,Cd(NiO2)2,-0.9432666257142858
mp-1196424,Cd(PN2)2,-0.4018653795317683
mp-4659,Cd(PO3)2,-2.4585996117261906
mp-1196598,Cd(PO4)2,-1.605406492359308
mp-1182043,Cd(PO5)2,-1.452096191675824
mp-1227215,Cd(Pt3O4)3,-0.8761126259090898
mp-8212,Cd(PtO2)3,-1.0938478852499998
mp-14100,Cd(RhO2)2,-1.2288740514285712
mp-8922,Cd(SbO3)2,-1.8647931425
mp-29052,Cd(W3Br7)2,-0.5527536325000006
mp-690912,Cd10As6HClO25,-1.6512722979797676
mp-1204954,Cd12Ge17(B4O29)2,-2.128720177482456
mp-680136,Cd13(In13Se27)2,-0.5191630009218197
mp-1227896,Cd15As9Cl2O37,-1.6424086430598417
mp-685363,Cd18Sn19O56,-1.7477816214516138
mp-1193812,Cd2(GeO3)3,-1.6572705043750002
mp-30941,Cd2(TeO3)3,-1.5240517068750006
mp-607960,Cd27Pd8,-0.021175890571428883
mp-31170,Cd2AgAu,-0.13305485000000014
mp-1096709,Cd2AgPd,1.0398186799999996
mp-1183537,Cd2AgPt,-0.20734616750000034
mp-10486,Cd2As2O7,-1.6838340962500007
mp-28900,Cd2As3Br,-0.28502225999999986
mp-27577,Cd2As3I,-0.2136623016666667
mp-27776,Cd2AsCl2,-0.935817169804
mp-1198923,Cd2AsHO5,-1.6271322922772211
mp-541677,Cd2AsO4F,-1.8711458079612493
mp-7210,Cd2B2O5,-2.257800847731481
mp-1194787,Cd2B6PbO12,-2.5042180480952383
mp-1201604,Cd2BO4,-1.7400899000595231
mp-1226971,Cd2Bi2(TeSe)3,-0.20852939457812525
mp-675654,Cd2Bi6O11,-1.4905472280921055
mp-556653,Cd2BiAsO6,-1.6727596772500006
mp-1204349,Cd2Cl4O5,-0.6473151256172727
mp-1213904,Cd2ClO3,-0.7288563270016665
mp-13361,Cd2Cu(PO4)2,-2.1603772310989005
mp-1227581,Cd2Cu10Sb4S13,-0.5445035318211215
mp-1096359,Cd2CuPt,1.387885285
mp-570514,Cd2Fe(CN)6,0.05657403221466761
mp-1229296,Cd2Fe3Cu10(SnSe4)5,-0.2934124331718749
mp-1227014,Cd2Ga2Se5,-0.6120995964409724
mp-1226974,Cd2GaAg(SeS)2,-0.6514862256640628
mp-6356,Cd2GaAgS4,-0.90774659515625
mp-1226972,Cd2GaAgSe4,-0.494366410546875
mp-1226976,Cd2GaCuS4,-0.8709089220312505
mp-1227001,Cd2GaCuSe4,-0.5304544042968748
mp-1227008,Cd2GaCuTe4,-0.34730423875000005
mp-29213,Cd2Ge7O16,-2.013397038399999
mp-5712,Cd2GeAs4,-0.08783271964285737
mp-3917,Cd2GeO4,-1.7900053635714284
mp-1197532,Cd2H11C2NCl5O2,-0.8718488431956519
mp-1204115,Cd2H18C8O17,-1.206471960309111
mp-558011,Cd2H2SO6,-1.740541213982045
mp-24015,Cd2H3ClO3,-1.4399920944855558
mp-11299,Cd2Hg,0.009556819999999949
mp-1227201,Cd2Hg13(As2Cl3)4,-0.6556016089748571
mp-1213924,Cd2Hg2H(SO5)2,-1.4093569052497057
mp-1213917,Cd2Hg2H(SeO5)2,-0.9703390622533816
mp-1226985,Cd2In3Ag3Te8,-0.32445110187500026
mp-1226962,Cd2InAgS4,-0.8429340074479166
mp-1097224,Cd2InBi,0.9860520879166664
mp-1227031,Cd2InCuSe4,-0.5024464572135416
mp-1198018,Cd2Mo15Se19,-0.4511095195355905
mp-1213890,Cd2Mo3O8,-1.8862365973076929
mp-1226964,Cd2MoWO8,-1.9005523016666668
mp-1182834,Cd2Ni(ClO2)6,-0.4427526278361907
mp-1227591,Cd2Ni2C8N12O,1.1545081884076
mp-1194532,Cd2Ni6Te3PbO18,-1.3373470232500002
mp-568932,Cd2Os(CN)6,0.0281066132146672
mp-5950,Cd2Os2O7,-1.490038650340909
mp-1213851,Cd2P,0.243513919285714
mp-1201288,Cd2P2H10CCl2O11,-1.5668004008752041
mp-27686,Cd2P2O7,-2.365443149821429
mp-29245,Cd2P3Br,-0.3103385577380955
mp-29246,Cd2P3Cl,-0.4569094907814287
mp-29244,Cd2P3I,-0.22500034857142856
mp-1214873,Cd2P4PdO8,-1.7225952835714282
mp-29276,Cd2P6O17,-2.4732019635642852
mp-31276,Cd2PCl2,-0.9356863337325716
mp-557910,Cd2PO4F,-2.348253838229108
mp-1096620,Cd2PdPt,1.4626298699999996
mp-865926,Cd2PdRh,-0.2619236200000001
mp-1093626,Cd2PtAu,1.182107855
mp-865929,Cd2PtRh,-0.2011753074999998
mp-16783,Cd2Re2O7,-1.7748812167045456
mp-1183541,Cd2RhAu,-0.12086124499999995
mp-568373,Cd2Ru(CN)6,0.05291546988133386
mp-505552,Cd2Ru2O7,-1.4272582530681823
mp-1205273,Cd2S2O9,-0.7043229757211538
mp-1200364,Cd2S3(NO6)2,-1.0666093176024989
mp-1196645,Cd2SO6,-1.4256837262847226
mp-1191189,Cd2Sb2O7,-1.8089644617045453
mp-1199437,Cd2Sb5O2F31,-2.2991147119847497
mp-1227013,Cd2Sb6S11,-0.5842415255098686
mp-1181950,Cd2Se3N2O15,-0.6098169433768742
mp-541108,Cd2Si(P2O7)2,-2.581284542908164
mp-4530,Cd2SiO4,-2.2434834235714285
mp-1226967,Cd2SnGeAs4,-0.10731238375000007
mp-5966,Cd2SnO4,-1.7355689121428566
mp-1192130,Cd2Tc2O7,-1.7067280885227272
mp-30940,Cd2Te2O7,-1.5342110996590896
mp-950214,Cd2TeCl2O3,-1.5174339539400004
mp-1226950,Cd2TeS,-0.6626699060156254
mp-1226952,Cd2TeSe,-0.5282539196484373
mp-13602,Cd3(AsO4)2,-1.682219222692308
mp-1198909,Cd3(BO2)7,-2.4600588539236115
mp-1192091,Cd3(BO3)2,-2.1075465850757578
mp-675991,Cd3(BiO2)10,-1.4348645942424247
mp-29297,Cd3(ClO)2,-1.4412419577171427
mp-1227011,Cd3(CuP5)2,-0.11107115776190428
mp-1226990,Cd3(InSe3)2,-0.5753452912026514
mp-1182653,Cd3(P3O14)2,-1.3600594906177597
mp-680761,Cd3(PO4)2,-2.2704444111630027
mp-759817,Cd3(Pt3O4)10,-0.8737573570547937
mp-1203548,Cd3(SeO3)4,-1.247143746809211
mp-1226933,Cd3Ag,-0.030741633749999938
mp-1183587,Cd3As,0.10441472250000006
mp-27899,Cd3AsCl3,-1.0028346728257138
mp-676464,Cd3AsI3,-0.4474328699999998
mp-30370,Cd3Au,-0.13121817250000026
mp-1226978,Cd3Au8,0.02698404045454565
mp-1183580,Cd3B,0.8524770045833332
mp-1196945,Cd3B4(PbO4)3,-2.1536840978030303
mp-1195436,Cd3BPO7,-2.204990805421628
mp-1183658,Cd3Bi,0.06435366500000006
mp-1227386,Cd3Co2(CN)12,0.27910352970482777
mp-1183630,Cd3Fe,0.3323986412499997
mp-1215138,Cd3Fe2(GeO4)3,-1.908696672375001
mp-1227787,Cd3Fe2Cu10(SnSe4)5,-0.3164420590468751
mp-1226907,Cd3FeS4,-0.8244345964062507
mp-1226917,Cd3FeSe4,-0.4287182161718753
mp-1183662,Cd3Ga,0.04675959750000014
mp-1213979,Cd3Ga2(GeO4)3,-1.995529498375
mp-1213947,Cd3Ga5O12,-1.7583983837500017
mp-1183644,Cd3Ge,0.13168938000000008
mp-1189546,Cd3GeO6,-1.35637293725
mp-1202482,Cd3H18S4N2O21,-1.5477580870295828
mp-1214359,Cd3H28C12(N15O)2,-0.3864571303367992
mp-697981,Cd3H2CSeO8,-1.532612698138916
mp-1229317,Cd3H36C10N5Cl11,-0.5332897813935382
mp-1214032,Cd3H8(SO4)3,-0.6544533873518268
mp-1183661,Cd3Hg,0.014404974999999931
mp-12661,Cd3In,0.020662987916666653
mp-1226957,Cd3InAu12,-0.12876925489583346
mp-1183626,Cd3Ir,0.09145732625000004
mp-569957,Cd3N2,0.40235385729800016
mp-1227365,Cd3NO8,-0.688917527281666
mp-1183624,Cd3Ni,0.08078208374999997
mp-1183653,Cd3Os,0.4739131237500001
mp-1183632,Cd3P,0.22242656071428568
mp-29415,Cd3PCl3,-0.9972980609889796
mp-1226891,Cd3PI3,-0.4389972053061221
mp-1183663,Cd3Pb,0.06871419625000019
mp-1200930,Cd3Pb2Se4(IO6)2,-1.3391796984510873
mp-1183635,Cd3Pd,-0.22246580875
mp-1183641,Cd3Pt,-0.19623414374999992
mp-1182631,Cd3S3O20,-1.078093731045672
mp-1183665,Cd3Se,-0.04299340839843757
mp-542117,Cd3Se3O10,-1.3957404061425782
mp-1226884,Cd3Si2Pb3O10,-1.9982087770833328
mp-13820,Cd3SiO5,-2.0584105601388885
mp-1183651,Cd3Te,0.07365676624999984
mp-14243,Cd3TeO6,-1.5334569477500004
mp-1199295,Cd41Ir8,-0.060995790918367127
mp-1227077,Cd43Pd8,-0.16715603225490194
mp-1214272,Cd4As2Cl3,-0.8035839952533332
mp-1214033,Cd4AsPI3,-0.3443243189880951
mp-755260,Cd4B6O13,-2.374225025054348
mp-685907,Cd4Bi2O7,-1.3474679902884623
mp-1226929,Cd4CoS5,-0.8232383350312503
mp-1229234,Cd4FeCu10(SnSe4)5,-0.3395808296718748
mp-1227026,Cd4FeS5,-0.8453125770312511
mp-1226966,Cd4Ge(SeS)3,-0.7158107984517046
mp-5151,Cd4GeS6,-0.9048686990340904
mp-18163,Cd4GeSe6,-0.5069447315056821
mp-1226897,Cd4HgSe5,-0.5366623257968751
mp-1226829,Cd4InTe4As,-0.20758842083333348
mp-1226872,Cd4Mo3WO16,-1.8961089500000008
mp-1226936,Cd4MoW3O16,-1.9736198583333329
mp-745114,Cd4NiH20(ClO)10,-1.3707963142777784
mp-28855,Cd4OF6,-2.319126964853636
mp-8921,Cd4P6SN12,-0.6285775328469395
mp-1013726,Cd4SF6,-2.2157562851093187
mp-1182250,Cd4Se4O15,-0.8823869036141307
mp-18179,Cd4SiS6,-1.0063309953977282
mp-17791,Cd4SiSe6,-0.5662294765056815
mp-1226783,Cd4Te3Se,-0.4891990160742186
mp-1226837,Cd4Te5Pb,-0.3971086269999997
mp-558759,Cd4Te6Cl6O13,-1.5042140922693108
mp-1202822,Cd5(AsO5)4,-1.0892731136206897
mp-1191469,Cd5(NO8)2,-0.4790758817286955
mp-1197040,Cd5(PO5)4,-1.6143551951231525
mp-1021494,Cd5(S2Cl)2,-1.0670994516154544
mp-1182036,Cd5(SiO5)2,-1.9370588394117647
mp-1214676,Cd53Pd16,-0.2534677447826086
mp-30371,Cd5Au3,-0.17133962499999988
mp-1226955,Cd5Bi6(Cl3O2)4,-1.5859236420683869
mp-30696,Cd5Cu2,0.022956383214285583
mp-1214030,Cd5Fe2(P2O7)4,-2.404915637491694
mp-1227196,Cd5Ge(PO6)2,-2.082189357714286
mp-1215066,Cd5H18C8N20(Cl2O)2,-0.5446120160228067
mp-1213988,Cd5H2(NO7)2,-0.4892359684565215
mp-566657,Cd5Mo2(P2O7)4,-2.4310713543521576
mp-1229280,Cd5Ni,0.03981862791666657
mp-23643,Cd5P3ClO12,-2.2043741709375517
mp-1226956,Cd5P3O13,-2.1224889915561227
mp-1227191,Cd5Si(PO6)2,-2.247790329464287
mp-1213943,Cd5Si2PO12,-2.192510001857144
mp-1226846,Cd5Te4S,-0.5296079289062501
mp-1226820,Cd5TeS4,-0.844684524125
mp-769964,Cd6(CoO3)5,-1.209880034182692
mp-1198745,Cd6P7NO24,-2.1561296449310534
mp-669510,Cd6Sb5,0.4441916927272729
mp-23476,Cd7(P2Cl3)2,-0.8559873332724367
mp-29576,Cd7P10,-0.07653933949579833
mp-683967,Cd7Te7Cl8O17,-1.5262040753802577
mp-647220,Cd85Pd27,-0.2386081662053573
mp-567857,Cd8Ag5,-0.06487116269230789
mp-1193415,Cd8Au5,-0.14234523192307666
mp-1227291,Cd8Cu7P30,-0.10430253609523876
mp-703302,Cd9(InSe2)20,-0.3709323070350244
mp-983602,CdAg2Au,-0.07156145374999978
mp-554105,CdAg2GeS4,-0.6764573482812506
mp-1226771,CdAg2Sn3S8,-0.7336271001785717
mp-1226773,CdAg2SnS4,-0.6257645207812499
mp-1226777,CdAg2SnSe4,-0.29973668679687515
mp-1183627,CdAg3,-0.05401990624999975
mp-542200,CdAg4Ge2S7,-0.6227639756026784
mp-1183634,CdAgAu2,-0.1128483737499999
mp-996963,CdAgO2,-0.8950721393749994
mp-867260,CdAgPd2,-0.2609181087499999
mp-542065,CdAgSb,0.004530013333333471
mp-7373,CdAs,-0.07834578374999968
mp-557926,CdAs2(XeF5)4,-1.7552068327333334
mp-651073,CdAs2C4SN4(OF6)2,-1.5029996412639428
mp-24302,CdAs2HF13,-2.3992190431817653
mp-557010,CdAs2S18N12(OF2)6,-1.0965790344797062
mp-558288,CdAs2S2(OF3)4,-2.2842699217811906
mp-1183659,CdAs3,0.3745854712500001
mp-1226754,CdAsP,-0.0702121257142861
mp-1025311,CdAsPt5,-0.2458447328571428
mp-16886,CdAu,-0.18093825138888933
mp-865144,CdAu3,-0.12826304000000022
mp-1072852,CdB2,2.573631132222222
mp-557364,CdB2F8,-3.0177830143503037
mp-559282,CdB2XeF10,-2.5414665512666663
mp-13603,CdB4O7,-2.6684329926388894
mp-1183631,CdBO3,-1.011692643083333
mp-1226996,CdBi12(Cl7O6)2,-1.6548880680933336
mp-1183657,CdBi3,0.11196980499999976
mp-34421,CdBi3O7,-1.2572329207954545
mp-1226909,CdBi8(Br5O4)2,-1.2973141772222223
mp-1226921,CdBi8(Cl5O4)2,-1.6367569217629627
mp-1196929,CdBiBF10,-2.5805374739282048
mp-1226758,CdBiBrO2,-1.3520480784999998
mp-550553,CdBiClO2,-1.6112099701519988
mp-1226753,CdBiIO2,-1.2614533244999997
mp-755478,CdBiO3,-1.4584748337500002
mp-561079,CdBiS2Br,-0.8297980376249999
mp-558849,CdBiS2Cl,-1.012722023277
mp-570590,CdBiSe2Br,-0.5579114244374995
mp-570961,CdBiSe2I,-0.4653240404374998
mp-1102017,CdBrO,-0.7183420737499997
mp-1006887,CdC,1.9835657181250004
mp-1192278,CdC2(NO)4,-1.013161373365454
mp-540903,CdC2(SN)2,-0.1823025407692853
mp-1182178,CdC2O7,-0.772661218124999