task_id,composition,formation_energy_per_atom
mp-1197738,CuH12C3S3BrN6,-0.4977493959579806
mp-1199530,CuH12C3S3IN6,-0.4785062504291346
mp-1199396,CuH12C3S3N6Cl,-0.5341019474295183
mp-774723,CuH12C3SN6O7,-0.9676219208927496
mp-559038,CuH12C4(NO)6,-0.9056800734558612
mp-698375,CuH12C5S4N,-0.31527743112260903
mp-1198480,CuH12C6(S2N)2,-0.2920383283779995
mp-604996,CuH12N2(Cl2O)2,-1.004506186844762
mp-697008,CuH12N2(OF2)2,-1.3254928424028567
mp-707052,CuH12Se(NO)4,-0.575239686888807
mp-561308,CuH14C3NCl3O2,-0.7217235726704162
mp-1181838,CuH14C4(NO2)4,-0.8554257027483877
mp-705846,CuH16(ClO8)2,-1.0962544858411418
mp-707285,CuH16(IO8)2,-1.1408922212262853
mp-759393,CuH16C4(N5O)2,-0.5438965258096969
mp-1226397,CuH16PtC4N4O11,-0.9749046777348646
mp-721789,CuH18C4N10(ClO)2,-0.6231770165670273
mp-1212998,CuH2(Br2N)2,1.3693362119999999
mp-1201042,CuH2(CO2)2,-1.1429937191377784
mp-1213238,CuH2(NCl2)2,0.6618593688844447
mp-1213087,CuH2(NF2)2,-0.1255847890844445
mp-24164,CuH2(SeO3)2,-1.206194818357046
mp-696200,CuH20C2S3(NO)8,-0.8357581815744637
mp-1199822,CuH20C6(NCl2)2,-0.4816325704606057
mp-1199050,CuH20N6OF2,-0.8162177445658888
mp-722275,CuH20S2(NO7)2,-1.3657025821226922
mp-703398,CuH20Se2(NO7)2,-1.168595366714038
mp-707973,CuH22C8N10O,-0.3662125585045241
mp-707484,CuH2N2O7,-0.7544958267291673
mp-1191652,CuH2PbSO6,-1.6350661762547731
mp-24522,CuH2SO5,-1.5649161525058328
mp-23955,CuH2SeO5,-1.1575403313426391
mp-707464,CuH3(NO2)3,-0.8496238419615375
mp-1201127,CuH32W6(Cl6O11)2,-1.2896682326364384
mp-698361,CuH36C8(N5O4)2,-0.7009768487955553
mp-1197502,CuH36S8I2(N3O4)3,-0.981468465135882
mp-1199734,CuH36S8N11O18,-1.0292991267770264
mp-1201449,CuH38C12(S4O7)2,-0.7276425577063022
mp-556951,CuH3C2NO4,-1.1076124427945446
mp-1194779,CuH3C3O4,-0.9837833374645456
mp-866635,CuH3NCl,-0.6925123648333339
mp-23875,CuH4(ClO)2,-1.1819559192777775
mp-756758,CuH4(IO4)2,-1.0481778592986666
mp-632759,CuH4(OF)2,-1.5368383343733332
mp-1199348,CuH44C12N8(ClO5)2,-0.6715180786018172
mp-698396,CuH4C2NCl3O,-0.32697555253250005
mp-721604,CuH4C2S2N2Cl,-0.4673327679687495
mp-707169,CuH4C3ClO2,-0.7304105816127272
mp-643378,CuH4Pb2(ClO2)2,-1.3737877189230765
mp-720263,CuH4SeO5,-1.2488529949385232
mp-1203607,CuH5C3NO4,-0.8924940400342852
mp-570040,CuH5C5NCl,-0.1420277805761539
mp-709886,CuH5Pb4SO11,-1.5241855043596593
mp-600167,CuH6(CO2)4,-1.1865265462747367
mp-862687,CuH6(NCl)2,-0.731758398454545
mp-643052,CuH6(NO)4,-0.7102847164160001
mp-733650,CuH6(SeO4)2,-1.2548511746416169
mp-866097,CuH6BrN2,-0.570249763148
mp-1200865,CuH6C2O7,-1.351000772529375
mp-1197914,CuH6C2SeCl,-0.3330716262339773
mp-1202646,CuH6C2SeI,-0.225546637073978
mp-24362,CuH6CN2O3,-0.9572240301138464
mp-1238512,CuH6S2(NO4)2,-0.8716329978739467
mp-1192826,CuH6SO7,-1.4906775106354997
mp-707509,CuH6Se2NClO6,-1.0825006743851464
mp-1182659,CuH7C3SN3O4,-0.5811275909364468
mp-707987,CuH8(ClO5)2,-1.0522115835942851
mp-568659,CuH8C2(N6Cl)2,-0.2663736960615995
mp-556725,CuH8C2Br3NO,-0.5570787178181247
mp-698414,CuH8C2NCl3,-0.5911320164079996
mp-560533,CuH8C4(NO3)2,-0.9438733124390476
mp-696290,CuH8C4N8(ClO)2,-0.2572934884808001
mp-542176,CuH8C4O5,-0.9203616216783324
mp-583429,CuH8C6(N3O)2,-0.231179017314782
mp-707852,CuH8CN5Cl3,-0.09401099552166572
mp-1196599,CuH8N2(OF2)2,-1.2215182327047056
mp-1201234,CuH8S3O10,-1.4254941384612498
mp-1198838,CuH9C3N(ClO)2,-0.698988143485001
mp-654900,CuH9C4NO6,-0.37176701880761903
mp-738675,CuH9C4S4N,-0.28681768164263205
mp-1201220,CuH9C5NO5,-0.7717004285695229
mp-706528,CuH9CSN4Cl3O,-0.3804291975471251
mp-769935,CuHCO4,-1.3292878243861903
mp-643743,CuHClO,-1.0335627264075002
mp-697072,CuHIO4,-0.9575891948028572
mp-996956,CuHO2,-1.0354968502799995
mp-24242,CuHOF,-1.4582007990150003
mp-1213674,CuHS(NO)4,-0.7291437224729549
mp-1194904,CuHg(SeO3)2,-1.084008025718751
mp-571268,CuHg3As2Br3,-0.2660356520370368
mp-1213415,CuHg3As2Cl3,-0.5430919583088886
mp-640925,CuHgC4(SN)4,0.003144299052142482
mp-996973,CuHgO2,-0.7557283156249999
mp-1184044,CuHgO3,-0.36062535875
mp-1097344,CuHgPd2,1.6795898525
mp-554879,CuHgSBr,-0.44978410789062506
mp-23567,CuHgSCl,-0.6709228896431254
mp-542426,CuHgSI,-0.3725962297656253
mp-567720,CuHgSeBr,-0.28369328339843713
mp-569687,CuHgSeCl,-0.49267913233843696
mp-1147667,CuI2,0.09649501333333356
mp-33218,CuI4,0.1302783399999999
mp-1192231,CuIO4,-0.8281820079166664
mp-631427,CuIrBr,1.1843495000000008
mp-571184,CuMo3Br7,-0.620392284431817
mp-568397,CuMo3Cl7,-1.225519165710908
mp-29440,CuMo3I7,-0.35429482102272786
mp-1198174,CuMo3O11,-1.5288996412500002
mp-611706,CuMoF6,-2.4398838983925
mp-1078111,CuMoS4N,0.08845823305285754
mp-1080203,CuN,0.19259942131000066
mp-1181556,CuN2(Cl2O)2,0.6386565160777783
mp-608366,CuN6,0.3236267890314295
mp-1199648,CuN6(ClO4)3,0.9658127595881816
mp-1105578,CuNCl3,0.3617485515680002
mp-1080799,CuNF3,-0.3325347941899999
mp-1225687,CuNi,0.011219640000000195
mp-510642,CuNi2(PO4)2,-1.9503994810989007
mp-30069,CuNi2Sb,-0.09115281124999974
mp-30592,CuNi2Sn,-0.13024665874999908
mp-1184054,CuNi3,0.030804644999999912
mp-1227004,CuNi3(CO3)8,-0.962485
mp-1225814,CuNi3(SnS4)2,-0.6845038751785724
mp-1017556,CuNi3N,-0.08353833247600022
mp-761415,CuNi3O4,-0.8440410131250005
mp-1225702,CuNi3S8,-0.6467464693750001
mp-772465,CuNi4O5,-0.8689095696250007
mp-767305,CuNi9O10,-0.9006054776250003
mp-1096571,CuNiAu2,1.7928948800000004
mp-1178372,CuNiO2,-0.8681773231249998
mp-1225685,CuNiPd,0.04908983666666642
mp-11834,CuNiSb2,-0.14592592749999955
mp-1191203,CuNiSbS3,-0.6333102236979175
mp-1692,CuO,-0.9533905956249996
mp-25378,CuO2,-0.5395609074999991
mp-997035,CuO2F,-0.8748199834224994
mp-505785,CuP(HO)5,-1.4844050422077375
mp-606644,CuP10,-0.04400781967532391
mp-730473,CuP2(H2O3)2,-1.595683296251209
mp-24156,CuP2(HO)4,-1.2200881937514276
mp-720380,CuP2(HO3)2,-1.4505604185477934
mp-690769,CuP2H12N2(O4F)2,-1.5640162098098418
mp-1203798,CuP2H18C6Cl,-0.354692328534132
mp-1199239,CuP2H7C2NO6,-1.2262610489213532
mp-24145,CuP2H8CN2O5,-1.039366863579248
mp-21533,CuP2PbO7,-2.2549300127759757
mp-695966,CuP3H12NO13,-1.3872358284499529
mp-1197183,CuP3NO9,-1.7264383437541837
mp-1213434,CuP4(RuO7)2,-2.1139153960034016
mp-567472,CuP4I,-0.08713667170634902
mp-505436,CuP4O11,-2.3433504106138385
mp-1197804,CuP4S3Br,-0.4423340689732148
mp-554724,CuP4S3I,-0.40117167591765857
mp-1196912,CuP4Se3Cl,-0.24574871056807504
mp-1202691,CuP4Se3I,-0.1073777232614085
mp-571015,CuP4Se4I,-0.14494688304464348
mp-1201409,CuP6Pd11O34,-1.3230452887568676
mp-1225955,CuP7I,-0.04963576680555567
mp-721471,CuPH4O5F,-1.7956778642969045
mp-733866,CuPH6NO5,-1.4601460266066322
mp-1201654,CuPHO4,-1.9073138379661227
mp-1078469,CuPN2,-0.32607383797571465
mp-1201294,CuPNO5,-1.5026779200966072
mp-772255,CuPO3,-1.995850678178572
mp-753519,CuPO4,-1.8913291349404755
mp-25380,CuPO4F,-1.7461619976189795
mp-1181537,CuPO5,-1.3658393869132641
mp-1225675,CuPS2,-0.3267978500669644
mp-1105187,CuPS3,-0.6220686368660708
mp-1225697,CuPSe2,0.04048088266741079
mp-1147595,CuPb2(ClO)2,-1.3283259470028566
mp-1079292,CuPb2(ClO2)2,-0.9938398179466659
mp-1147757,CuPb2(OF)2,-1.7426945449828577
mp-1147601,CuPb2(SCl)2,-0.8050820449492855
mp-1195366,CuPb2Cl3O2,-1.0763929009100002
mp-1195238,CuPb2I3O2,-0.6341991731249998
mp-1184128,CuPb3,0.2533051475000003
mp-1190173,CuPb3(ClO2)2,-1.3260447681519985
mp-1198565,CuPb5Se4(ClO3)4,-1.4285548008621152
mp-1096790,CuPbBr3,-0.2009247549999998
mp-1097010,CuPbO2,-1.1706540156249998
mp-1184117,CuPbO3,-0.9303796547500006
mp-1181649,CuPbSO6,-1.2604763957291665
mp-1096453,CuPd2Au,2.0880489525
mp-1184119,CuPd3,-0.06583019750000041
mp-1096049,CuPdAu2,1.7442424649999997
mp-1213075,CuPdF6,-1.6955371427675
mp-997012,CuPdO2,-0.8923887006250002
mp-1184073,CuPdO3,-0.10640934874999887
mp-644311,CuPt,-0.16699659499999964
mp-1213433,CuPt3,2.3734815200000003
mp-12608,CuPt7,-0.0755558349999994
mp-28488,CuPtF6,-1.7371118340175
mp-631418,CuRe2Cl,1.083889670435
mp-645206,CuReO4,-1.7879482299999991
mp-1225704,CuRh,0.0662055800000001
mp-14116,CuRhO2,-0.9725408481249992
mp-1184121,CuRu3,0.27357119875
mp-555599,CuS,-0.529884481197918
mp-849086,CuS2,-0.5437803160416669
mp-1193070,CuS2(N2O3)2,0.2460666880657691
mp-1213485,CuS2(NO4)2,-0.537659672529615
mp-1196719,CuS2(NO7)2,-0.6612012644939472
mp-653586,CuS4(N2Cl)2,-0.220679777026364
mp-557980,CuS4BrN4,-0.05518402132699975
mp-1147671,CuSCl,-0.6537171085519446
mp-1199802,CuSN4O5,-0.7821674265756813
mp-20525,CuSO4,-1.628902631093749
mp-1213467,CuSO7,-0.5967052308680552
mp-622126,CuSb(MoO4)2,-1.7989490220833335
mp-755148,CuSb(PO4)2,-2.1210915220238094
mp-560231,CuSb2(XeF4)6,-1.5863197493503032
mp-554497,CuSb2(XeF5)4,-1.7624557419925926
mp-606617,CuSb2(XeF8)2,-2.01900846424
mp-559587,CuSb2BrO3,-1.3275374182142858
mp-554291,CuSb2ClO3,-1.4479251360014287
mp-553890,CuSb2H12(O3F4)2,-1.8069446158779312
mp-773874,CuSb3(PO4)6,-2.251742561407564
mp-1196390,CuSb3XeF23,-2.0985792310667857
mp-1190199,CuSb6(SO8)2,-1.819996423525
mvc-1872,CuSbAs2O7,-1.3558034156818182
mp-1041001,CuSbO4,-1.1847586245833324
mp-649774,CuSbPbS3,-0.6712015349479176
mp-1097593,CuSbPd2,1.7163213837500004
mp-867753,CuSbRh2,-0.2836638387500008
mp-571486,CuSe,-0.12775309596354134
mp-2000,CuSe2,-0.08635245072916692
mp-29567,CuSe2Br,-0.214046374296875
mp-31038,CuSe2Cl,-0.4320548832368751
mp-3199,CuSe2O5,-1.1421225685546874
mp-28741,CuSe3Br,-0.14592356015625044
mp-29450,CuSe3I,-0.0938804524895834
mp-1213564,CuSeClO5,-0.3451395352317181
mp-554040,CuSeO4,-1.0090257910156246
mp-1225747,CuSeS,-0.2819308783854169
mp-23731,CuSi(HO2)2,-1.9270658015299995
mp-1181491,CuSi(O2F3)2,-1.3465865993449997
mp-698318,CuSi2H18C9O2,-0.3659029178565625
mp-674984,CuSi2P3,-0.0843873885714288
mp-1225800,CuSi4P3,0.048369827946428856
mp-631422,CuSiBr,0.6770359033333341
mp-721943,CuSiH12(OF)6,-1.861878973868461
mp-1226404,CuSiH18C7S3I,-0.30711902471282226
mp-703531,CuSiH8(O2F3)2,-1.999398424805
mp-1093651,CuSiIr2,2.7494899475000008
mp-556982,CuSiO3,-2.2887292794166663
mp-1204686,CuSiO4,-1.671117210833334
mp-978532,CuSiRh2,-0.5329869874999993
mp-1097425,CuSiTc2,3.0926607625000004
mp-10598,CuSn,-0.026385724999999915
mp-1213555,CuSn(O2F3)2,-1.0717780072616665
mp-758849,CuSn(PO4)2,-2.236175916190476
mp-1184173,CuSn3,0.2257540312499997
mp-1213671,CuSn3F6,-1.2028257212139999
mp-1197282,CuSn3H27C9NCl,-0.23433860755071395
mp-1071623,CuSnAu,-0.0964599899999996
mp-4701,CuSnF6,-2.4357186477675
mp-696152,CuSnH12(NO3)2,-1.1312494600318197
mp-1213499,CuSnO12,0.009507073214285202
mp-1181801,CuSnO6,-0.4569151884375007
mp-1184057,CuSnPd2,-0.3960228662499992
mp-30595,CuSnRh2,-0.3524975187499999
mp-631463,CuTcBi,0.6840079683333329
mp-20826,CuTe,-0.0626458875
mp-756522,CuTe(PO4)2,-2.0393206832738087
mp-1103235,CuTe2,-0.002556311666667218
mp-31036,CuTe2Br,-0.2017568524999996
mp-30971,CuTe2Cl,-0.4154009158149998
mp-31037,CuTe2I,-0.11831852187500005
mp-27548,CuTe2O5,-1.3253621851562496
mp-1041481,CuTe2O7,-1.027108665375
mp-1203135,CuTe2PbO7,-1.4257926080681818
mp-570909,CuTe4H12C4N,-0.20428341037818207
mp-1184180,CuTeAs,-0.014379612499999675
mp-568778,CuTeBr,-0.2516497377777777
mp-1181623,CuTeNO4,-0.7763288614114278
mp-558696,CuTeO3,-1.2499766892500006
mp-22420,CuTeO4,-1.24157457625
mp-1201121,CuTePb3CO10,-1.4484275432031255
mp-1213133,CuTeSBr,-0.38398815164062494
mp-1213106,CuTeSCl,-0.6008788393306248
mp-1225744,CuTeSe,-0.036846547864583336
mp-1213194,CuTeSeBr,-0.2294391533984377
mp-1213116,CuTeSeCl,-0.4450486242134377
mp-1213068,CuTeSeI,-0.14286777152343744
mp-1042407,CuW2O7,-1.6985052855416654
mp-23370,CuW3Br7,-0.4620350899999986
mp-29557,CuW3Cl7,-1.06012178912
mp-565766,CuWO3F2,-2.0353057723042856
mp-510632,CuWO4,-1.6873622741666665
mp-985207,Dy(Al2Cr)4,-0.2142090938461529
mp-984726,Dy(Al2Cu)4,-0.30502196230769185
mp-5091,Dy(Al2Fe)4,-0.4261563969230775
mp-1213056,Dy(Al5Fe)2,-0.3521427550000005
mp-1213146,Dy(Al5Re)2,-0.353129646153846
mp-1104803,Dy(AlC)3,-0.2898553980357142
mp-28714,Dy(AlCl4)3,-2.1572453222366668
mp-7121,Dy(AlSi)2,-0.3783286000000011
mp-1213554,Dy(AsO)2,-1.4241969954999996
mp-2958,Dy(BC)2,-0.4474630181666669
mp-1095029,Dy(BIr)2,-0.7324108626666657
mp-3261,Dy(BO2)3,-3.2150350380000026
mp-1105740,Dy(BRh)4,-0.5836105257407398
mp-1202990,Dy(BRu)4,-0.4967555260185194
mp-849319,Dy(Bi3O5)4,-1.764515549242424
mp-769364,Dy(BiO2)3,-2.2029788692500003
mp-1181480,Dy(BrO2)3,-1.06100895175
mp-1181490,Dy(ClO2)3,-1.1036537132279995
mp-768166,Dy(ClO4)3,-1.1135959765487504
mp-1106057,Dy(Co2B)6,-0.3448382521052637
mp-5135,Dy(CoB)2,-0.5635878946666665
mp-19771,Dy(CoGe)2,-0.6092584039999999
mp-5976,Dy(CoSi)2,-0.8257956820000004
mp-12080,Dy(CrGe)2,-0.2886060819999997
mp-530588,Dy(CrS2)3,-1.4212185226874994
mp-19909,Dy(CrSi)2,-0.43072480399999896
mp-22066,Dy(CuGe)2,-0.4985387159999995
mp-9420,Dy(CuO2)2,-2.0919493714285715
mp-1018631,Dy(CuS)2,-1.0685337936250008
mp-1225724,Dy(CuS)3,-1.1400784703124995
mp-1225403,Dy(CuSe)3,-0.7348011229687492
mp-2917,Dy(CuSi)2,-0.5941254420000001
mp-1225395,Dy(CuTe)3,-0.4988959285714277
mp-20247,Dy(Fe2Ge)2,-0.29431902071428545
mp-1104283,Dy(Fe2Si)2,-0.4540961514285726
mp-1225375,Dy(Fe5Si)2,-0.2495678515384627
mp-568725,Dy(FeB)2,-0.4390448566666663
mp-21426,Dy(FeGe)2,-0.456753106
mp-1178371,Dy(FeO2)2,-2.563170872142857
mp-4939,Dy(FeSi)2,-0.6807734220000015
mp-672392,Dy(FeSn)6,-0.12037228692307735
mp-1213263,Dy(GaCo)6,-0.32554598769230725
mp-22180,Dy(GePd)2,-0.7942015419999997
mp-1079316,Dy(GePt)2,-0.8667489889999999
mp-4337,Dy(GeRh)2,-0.8838405500000001
mp-21082,Dy(GeRu)2,-0.6464227480000005
mp-24074,Dy(HO)3,-2.3219364820871427
mp-559637,Dy(IO3)3,-1.5047472125961543
mp-1225823,Dy(InCu)6,-0.11733155769230745
mp-1205433,Dy(InPt)4,-0.7070205648148149
mp-1184194,Dy(Mg4Al3)4,-0.059816983448275726
mp-1225398,Dy(MnAl)6,-0.240896251538462
mp-21000,Dy(MnGe)2,-0.47875868
mp-20668,Dy(MnGe)6,-0.317408955384615
mp-4985,Dy(MnSi)2,-0.6271187519999998
mp-1105051,Dy(MnSn)6,-0.1267064661538462
mp-1103518,Dy(Mo3S4)2,-1.2461749381666674
mp-1104138,Dy(Mo3Se4)2,-0.6933844725833335
mp-1196716,Dy(NO3)3,-1.557162947376154
mp-1182296,Dy(NO5)3,-0.7747005776784208
mp-11340,Dy(Ni2As)2,-0.6288149671428575
mp-1202380,Dy(Ni2B)6,-0.3913759823684212
mp-866032,Dy(Ni2P)2,-0.8309476206122446
mp-1079900,Dy(NiB)2,-0.5596860546666662
mp-1080746,Dy(NiBi)2,-0.2283248069999999
mp-21415,Dy(NiGe)2,-0.6885465540000005
mp-5227,Dy(NiP)2,-1.0159515768571423
mp-1080718,Dy(NiSb)2,-0.5566640780000001
mp-1237528,Dy(PO)2,-1.3356292093571431
mp-771106,Dy(PO3)3,-3.039385724821428
mp-1207097,Dy(PPd)2,-0.9255151888571432
mp-568782,Dy(PPt4)2,-0.6441456185714279
mp-569089,Dy(PRu)2,-1.0366714348571435
mp-1206850,Dy(SiAg)2,-0.385065680000001
mp-2954,Dy(SiAu)2,-0.55238406
mp-4065,Dy(SiIr)2,-1.0807210159999996
mp-4692,Dy(SiNi)2,-0.8565648799999999
mp-542389,Dy(SiNi5)2,-0.4412774107692313
mp-12088,Dy(SiOs)2,-0.7279619459999992
mp-3301,Dy(SiPd)2,-0.9430030720000004
mp-1080061,Dy(SiPt)2,-1.0888331359999994
mp-2893,Dy(SiRh)2,-1.12142445
mp-4177,Dy(SiRu)2,-0.915872048
mp-1025364,Dy(TiGa2)2,-0.5314722576190475
mp-1213639,Dy(TlTe2)3,0.6915536965000001
mp-581987,Dy(Zn10Rh)2,-0.2363521547826081
mp-580113,Dy(Zn10Ru)2,-0.18854621826086893
mp-1213039,Dy(ZnP)3,-0.5995886573469379
mp-1226088,Dy10Al4Ge11,-0.7259978697999998
mp-569825,Dy10Si17,-0.6780210259259255
mp-37310,Dy10Ti6O27,-3.78412158497093
mp-1205037,Dy11(In3Si2)2,-0.5969053354761906
mp-1213205,Dy11(Mn2C3)6,-0.34050504652439084
mp-1202044,Dy11(Ni10C)6,-0.27258057159090937
mp-1205189,Dy11Cd45,-0.21183857651785715
mp-1213526,Dy11Ge10,-0.8456556716666667
mp-1213601,Dy11Ge18,-0.7107849305172421
mp-531574,Dy11S16,-2.4345438757407414
mp-30624,Dy11Sn10,-0.7352631766666666
mp-766279,Dy11Y5O24,-4.013959751749998
mp-543017,Dy12(MnC3)5,-0.35571499441406296
mp-1196965,Dy12(ReC3)5,-0.36380485964843867
mp-1213130,Dy12Al7Si,-0.37419939950000014
mp-1213103,Dy12Co5Bi,-0.2764096963888897
mp-1226206,Dy12Ge5S28,-1.884972942416667
mp-1213460,Dy12Ni6Pb,-0.3762279715789463
mp-1225718,Dy12Si5S28,-2.001894776083334
mp-1225465,Dy13Mg7Co4,-0.13307654958333318
mp-1197303,Dy13Zn58,-0.3160781699295775
mp-675822,Dy14(PbS8)3,-2.1886574375000007
mp-1225847,Dy14Ag51,-0.24153433646153835
mp-1225861,Dy14Au51,-0.6268835329230771
mp-675768,Dy14Ti10O41,-3.767919445814103
mp-1213073,Dy2(Al3Ir)3,-0.8612931303571429
mp-1213071,Dy2(Al3Pd)3,-0.6888913092857136
mp-1213083,Dy2(Al3Rh)3,-0.8328622092857145
mp-1225361,Dy2(B2Rh3)3,-0.6411163535294105
mp-753975,Dy2(BiO2)7,-2.083966280108696
mp-1193482,Dy2(Ga3Co)3,-0.4822020475
mp-1213136,Dy2(Ga3Ir)3,-0.6608836789285709
mp-1213121,Dy2(Ga3Rh)3,-0.7044990200000001
mp-22627,Dy2(Ga3Ru)3,-0.5340012517857146
mp-1226188,Dy2(GaNi)5,-0.5616528211111118
mp-641314,Dy2(GePt3)3,-0.7852339289285715
mp-1225415,Dy2(InSn)3,-0.42098642562499977
mp-1213120,Dy2(MoO4)3,-2.732660789117648
mp-1204635,Dy2(Ni2B)5,-0.4656670165931369
mp-1198877,Dy2(Ni5B3)3,-0.41425021375
mp-1213482,Dy2(SO4)3,-2.7976367163051474
mp-769232,Dy2(SeO4)3,-2.100636445193014
mp-558224,Dy2(TeO3)3,-2.489463464196429
mp-510253,Dy2(WO4)3,-2.7490517635294123
mp-1226356,Dy20In40Rh19,-0.5863435995358653
mp-774100,Dy29Y3O48,-4.0229022819999996
mp-1184089,Dy2AgAu,-0.5909132549999998
mp-864981,Dy2AgIr,-0.6077818649999998
mp-864977,Dy2AgOs,-0.28139260374999875
mp-865161,Dy2AgRu,-0.35765457125000033
mp-1206934,Dy2AgSb3,2.288824759166667
mp-1102728,Dy2Al,-0.28904051250000035
mp-1198587,Dy2Al17,-0.11074038763157926
mp-1196052,Dy2Al2Fe15,-0.08915198868421133
mp-1225300,Dy2Al3Co,-0.44765383000000014
mp-1225288,Dy2Al3Cu,-0.4650419750000007
mp-1225310,Dy2Al3Fe,-0.4006399666666679
mp-1106052,Dy2Al3Fe14,-0.11751221631578952
mp-1189494,Dy2Al3Ge4,-0.4270463444444448
mp-3513,Dy2Al3Si2,-0.5507865557142857
mp-1225421,Dy2Al5Fe12,-0.2146352721052626
mp-11631,Dy2Al6Si4Au,-0.3854552261538461
mp-11630,Dy2Al6Si4Pt,-0.5196004438461537
mp-1225315,Dy2AlCo3,-0.3053090683333342
mp-21382,Dy2AlGe2,-0.7222101510000002
mp-1213267,Dy2AlGe3,-0.6392638916666668
mp-1070646,Dy2AlNi2,-0.5529544000000008
mp-865159,Dy2AlZn,-0.3768473237500003
mp-1225463,Dy2As7Rh12,-0.695703825476191
mp-1103411,Dy2Au,-0.6359133041666668
mp-1213210,Dy2Au5F21,-2.2491195521425
mp-1200687,Dy2B3O8,-3.234168499615385
mp-568541,Dy2B4C,-0.5651555607738094
mp-16600,Dy2B4O9,-3.3056980471944457
mp-1198294,Dy2B6Os,-0.6551261458333326
mp-1198707,Dy2B6Ru,-0.6723567108333341
mp-20778,Dy2Be2GeO7,-3.3035486053125003
mp-1213057,Dy2Be2SiO7,-3.6013576778125
mp-769189,Dy2Bi2O7,-2.5554787276136364
mp-1069561,Dy2BiO2,-2.9825012955000005
mp-13038,Dy2C(NO)2,-2.5070742051442862
mp-2238,Dy2C3,-0.26213531625000003
mp-1225760,Dy2CI3,-1.1604909775000003
mp-1225362,Dy2CO5,-3.2790858237499987
mp-1206555,Dy2CdCu2,-0.3058223689999998
mp-1079838,Dy2CdGe2,-0.7214653120000001
mp-864973,Dy2CdIn,-0.4080496470833333
mp-16267,Dy2CdS4,-2.0483669023214293
mp-570959,Dy2CdSe4,-1.514674483482143
mp-1104560,Dy2CdTe4,-1.1124733035714285
mp-1191588,Dy2Co12P7,-0.7992748269047625
mp-569638,Dy2Co17,-0.0953147881578936
mp-1206614,Dy2Co2I,-0.6012692550000004
mp-865105,Dy2Co3Ge5,-0.5816800584999996
mp-15898,Dy2Co3Si5,-0.7735272885000001
mp-569158,Dy2Co7B3,-0.3999929008333337
mp-1213101,Dy2CoPtO6,-2.604941117249999
mp-31093,Dy2CoSi2,-0.7619798670000009
mp-1190177,Dy2CoTe2(SO7)2,-2.425063295982143
mp-1025323,Dy2Cr2C3,-0.3110660108928564
mp-1232352,Dy2CrFeO6,-3.1044349992500004
mp-1225509,Dy2CrSbO7,-3.061937364886364
mp-557935,Dy2Cu(BO2)8,-2.9596801149382723
mp-22196,Dy2Cu(GeO3)4,-2.5362572944736845
mp-1213218,Dy2Cu(GeO4)2,-2.7274599880769226
mp-1195739,Dy2Cu(SO6)2,-2.218094851360295
mp-1213119,Dy2Cu(SiO3)4,-3.2522013392105262
mp-1213479,Dy2Cu(WO4)4,-2.4865484002173903
mp-771141,Dy2Cu2O5,-2.6203670748611114
mp-1225292,Dy2CuAg3,-0.2730206799999995
mp-1095027,Dy2CuGe6,-0.4137638866666656
mp-864963,Dy2CuIr,-0.5951192550000002
mp-752673,Dy2CuO4,-3.1237499678571417
mp-1184094,Dy2CuPt,-0.7785648624999997
mp-864960,Dy2CuRh,-0.5670499749999998
mp-865220,Dy2CuRu,-0.3392671037500001
mp-1207340,Dy2CuSb3,2.451537814166667
mp-559681,Dy2CuTe5Br2O13,-1.9526814867934783
mp-1190791,Dy2Fe12P7,-0.7182508688095238
mp-4023,Dy2Fe14B,-0.1126897177450985
mp-571165,Dy2Fe14C,-0.07423861183823653
mp-1225909,Dy2Fe15Co2C,-0.039088112937500336
mp-1225868,Dy2Fe15Co2CN,-0.13180429957761844
mp-1225614,Dy2Fe15Si2C,-0.10967557093749887