task_id,composition,formation_energy_per_atom
mp-1213772,Cs2TmCl5O,-2.107387415273754
mp-1111447,Cs2TmCuCl6,-2.1491140321973794
mp-1025334,Cs2TmH4,-0.28024361955625565
mp-572551,Cs2U(Br2O)2,-2.2484174972126434
mp-541275,Cs2U(Cl2O)2,-2.6926151275504218
mp-1193333,Cs2U(PO5)2,-2.7225897989466343
mp-1192271,Cs2U(PdS2)3,-1.2892700155657326
mp-1191887,Cs2U(PdSe2)3,-0.8820579407480243
mp-1191335,Cs2U(PtS2)3,-1.2962395018157338
mp-1190813,Cs2U(PtSe2)3,-0.8654354107480243
mp-1197866,Cs2U(Si2O5)3,-3.23625634879849
mp-581584,Cs2U(SiO4)2,-3.2139530839356762
mp-700135,Cs2U2Mo3O16,-2.6919646418440766
mp-1183901,Cs2U2O5,-2.9364134120737546
mp-548479,Cs2U2O7,-3.288566968287618
mp-562366,Cs2U3(TeO7)2,-2.8826565919006577
mp-1202678,Cs2U3P6(HO5)4,-2.672287963564312
mp-1196686,Cs2U6Pd4S17,-1.5544089391888385
mp-1196336,Cs2UAs2O9,-2.482878642583128
mp-540735,Cs2UBr6,-1.6240486436015322
mp-1195416,Cs2UC2S2(NO2)4,-1.4435597785557257
mp-23077,Cs2UCl6,-2.32161160021931
mp-1213795,Cs2UF7,-3.59956651507438
mp-571275,Cs2UHg2Se5,-0.8601059145382546
mp-606213,Cs2UMoO7,-2.783470792984588
mp-1198784,Cs2UNb6(Cl5O)3,-2.0779275037060647
mp-2991,Cs2UO4,-3.0345925253448267
mp-561356,Cs2UP2O9,-3.0220230236035373
mp-669339,Cs2UTa6(Cl5O)3,-2.077706206483843
mp-560134,Cs2V(PO4)2,-2.6884104987845765
mp-1204913,Cs2V2H2O7,-2.1883249771849083
mp-1192739,Cs2V3O8,-2.463924672493368
mp-566366,Cs2V4O9,-2.4773002322442528
mp-1198581,Cs2V5H5O16,-2.110942541089778
mp-617180,Cs2V5O13,-2.4221457014331897
mp-8684,Cs2VAgS4,-1.317411302957975
mp-1102713,Cs2VBr5O4,-0.7313763756178157
mp-1102108,Cs2VCl5O4,-1.040021184476149
mp-1206014,Cs2VCl6,-1.969371613552644
mp-554848,Cs2VF6,-3.1784280305059776
mp-1226442,Cs2VH2(OF2)2,-2.5573658929012537
mp-1096946,Cs2VHO4,-2.1064390301292244
mp-1198002,Cs2VS5O,-1.3337248990529222
mp-1226138,Cs2W(OF2)2,-2.701026077741532
mp-1227891,Cs2W3(S2O)4,-0.7078387711713984
mp-541753,Cs2WBr6,-1.1160237369348662
mp-30234,Cs2WCl6,-1.8020644991081989
mp-761354,Cs2WO4,-2.258740274630541
mp-1213748,Cs2WO8,-1.3222881215830724
mp-17361,Cs2WS4,-1.4153074665948278
mp-581165,Cs2Xe(BrF7)4,-1.4882936428781084
mp-1112323,Cs2YAgBr6,-1.5928278622413792
mp-1112288,Cs2YAgCl6,-2.205318889197379
mp-1110987,Cs2YAgF6,-3.2539768769553796
mp-1112931,Cs2YAgI6,-1.2396623942413794
mp-1112918,Cs2YAuBr6,-1.4714592472413792
mp-1112919,Cs2YAuCl6,-2.06567543819738
mp-1112916,Cs2YAuI6,-1.144584556241379
mp-1213783,Cs2YCl5,-2.5621855570267242
mp-1111878,Cs2YCuBr6,-1.5357935862413792
mp-1112909,Cs2YCuCl6,-2.15322922319738
mp-1112877,Cs2YCuI6,-1.1740211142413788
mp-1112897,Cs2YHgBr6,-1.5206575992413796
mp-1112898,Cs2YHgCl6,-2.1174199011973798
mp-1112607,Cs2YHgF6,-3.1574512669553787
mp-1112895,Cs2YHgI6,-1.1836619092413794
mp-1113063,Cs2YInBr6,-1.6482383145747128
mp-1112628,Cs2YInCl6,-2.2626033215307126
mp-1113062,Cs2YInF6,-3.364953658288713
mp-1112795,Cs2YInI6,-1.2878085275747129
mp-581114,Cs2YSi4O10F,-3.3257326574918773
mp-1112106,Cs2YTlBr6,-1.6895701207413787
mp-1112103,Cs2YTlCl6,-2.306623301697379
mp-1112482,Cs2YTlF6,-3.4008695524553785
mp-1112156,Cs2YTlI6,-1.3278842047413792
mp-1078265,Cs2YbCl4,-2.5708293979219703
mp-1213746,Cs2YbCl5,-2.2029938048392244
mp-1025273,Cs2YbH4,-0.3961533581276844
mp-505633,Cs2Zn3S4,-1.2585024626293106
mp-1238553,Cs2Zn5P6(HO2)14,-1.8821235115627448
mp-1199216,Cs2ZnBi2S5,-1.1165229055226298
mp-1193173,Cs2ZnBr4,-1.4798627771305417
mp-540578,Cs2ZnCl4,-2.031293843636256
mp-570545,Cs2ZnFe(CN)6,-0.282332308855862
mp-779814,Cs2ZnH12(SO7)2,-1.7419788955315734
mp-779742,Cs2ZnH12(SeO7)2,-1.4960559261464934
mp-1181768,Cs2ZnH4,-0.31440004205625577
mp-1204449,Cs2ZnI4,-1.1821434736781609
mp-579919,Cs2ZnN12,-0.2250356335649182
mp-504601,Cs2ZnO2,-1.539049133982758
mp-1214991,Cs2ZnSi5O12,-3.0156087913706906
mp-1078823,Cs2Zr(AgTe2)2,-0.8021024169348665
mp-556129,Cs2Zr(IO3)6,-1.3840218009227332
mp-581877,Cs2Zr(Si2O5)3,-3.2667659179651576
mp-6694,Cs2Zr(SiO3)3,-3.2400187705775867
mp-1226158,Cs2Zr(WO4)3,-2.5601947409674324
mp-1226277,Cs2Zr2Mn(MoO4)6,-2.4479347695249656
mp-697946,Cs2Zr2ZnH12(OF2)6,-2.388623962932394
mp-571150,Cs2Zr7CI18,-1.0702096882558505
mp-1227000,Cs2ZrAl2(MoO4)6,-2.4795193749261077
mp-638729,Cs2ZrCl6,-2.381782640219311
mp-1201167,Cs2ZrCu3F12,-2.7514159353718783
mp-7903,Cs2ZrF6,-3.6939916732837546
mp-1226541,Cs2ZrFe2(MoO4)6,-2.2612053720689658
mp-1206511,Cs2ZrI6,-1.2613615624904218
mp-1226199,Cs2ZrMn(MoO4)4,-2.4071813651405747
mp-1213813,Cs2ZrMn(PO4)3,-2.839921233673808
mp-8759,Cs2ZrO3,-2.747258802693965
mp-9856,Cs2ZrSe3,-1.3828574946991736
mp-42227,Cs2ZrTlOF5,-3.18741782396138
mp-1228215,Cs3(Cr5Se8)4,-0.6223406051567395
mp-667308,Cs3(FeS2)2,-1.1071382341522995
mp-1214812,Cs3(Na13In24)2,-0.1439979679690998
mp-1229156,Cs3(SeO4)2,-1.6066592104467836
mp-1232419,Cs3Ac,0.5381806136781611
mp-1199633,Cs3Ag(AsSe2)4,-0.5115126768669183
mp-1198053,Cs3Ag2Sb3S8,-0.8950240388200434
mp-1226259,Cs3Ag9(SbS3)4,-0.6595079288346669
mp-582723,Cs3AlAs2,-0.4868332056034485
mp-1112379,Cs3AlBr6,-1.5138199318620689
mp-1113233,Cs3AlCl6,-2.160805178818069
mp-561315,Cs3AlGe2O7,-2.4221435828746687
mp-1112654,Cs3AlI6,-1.1345906698620687
mp-562441,Cs3AlO3,-2.1734919680172413
mp-619651,Cs3AlP2,-0.44160502027606735
mp-1193748,Cs3AlTe3,-0.9624745415886704
mp-1201199,Cs3As(PSe3)3,-0.5517241145245633
mp-573812,Cs3As11,-0.2932306809729072
mp-1104872,Cs3As2Cl9,-1.692704153425764
mp-30300,Cs3As5O9,-1.8248284755806288
mp-573631,Cs3As7,-0.388411362112069
mp-1112376,Cs3AsBr6,-1.2480138773620688
mp-1112373,Cs3AsCl6,-1.8101099173180693
mp-1112951,Cs3AsI6,-0.9631435843620688
mp-30119,Cs3AsO4,-2.0182145320150866
mp-1201774,Cs3AsSe4,-0.8424329600619611
mp-569984,Cs3Au2Br11,-0.8363762071012929
mp-1112982,Cs3AuBr6,-1.0475956628620688
mp-505212,Cs3AuO,-0.8791063319741376
mp-572441,Cs3AuO2,-1.2232174204645594
mp-1203209,Cs3B12AsF18,-2.2804844158100206
mp-542819,Cs3B12H12Br,-0.5533079682878815
mp-24799,Cs3B12H12Cl,-0.5853371437614528
mp-643710,Cs3B12H12I,-0.5324901722164535
mp-1196535,Cs3B3Se10,-0.5461918896598871
mp-695929,Cs3B6H12S4Br,-0.6903039707042572
mp-740711,Cs3B6H12Se4Br,-0.5002929850552184
mp-573658,Cs3BAs2,-0.3472234742145594
mp-1229098,Cs3BAsP,-0.3655085087383689
mp-1019608,Cs3BO3,-2.147356900576766
mp-9675,Cs3BP2,-0.38812177492884575
mp-30222,Cs3BS3,-1.32398628392498
mp-1181689,Cs3Ba4C3O9F5,-2.9261339186279454
mp-1227437,Cs3Bi11Se18,-0.5266662264315061
mp-574498,Cs3Bi2,-0.3227456157241377
mp-1200951,Cs3Bi2(PS4)3,-1.039187609189964
mp-1104268,Cs3Bi2Cl9,-1.862535749854335
mp-650619,Cs3Bi7Se12,-0.6198374912157134
mp-1112980,Cs3BiBr6,-1.3807480203620688
mp-570123,Cs3BiCl6,-2.002422684568069
mp-1112606,Cs3BiF6,-2.899805047076069
mp-1112977,Cs3BiI6,-1.0796776603620688
mp-29505,Cs3BiO3,-1.6227271856958123
mp-581738,Cs3BiSe3,-0.9530156195574204
mp-1205638,Cs3BrO,-1.4553905429741376
mp-1185563,Cs3Ca,0.22133325596982767
mp-1213703,Cs3Ca2Cl7,-2.5715918413700583
mp-1198664,Cs3CaFe(P2O7)2,-2.7748347732474827
mp-1188465,Cs3CdBr5,-1.5175424531800763
mp-1184118,Cs3CdH5,-0.23927830852452125
mp-669317,Cs3CdI5,-1.2588413809578545
mp-1214351,Cs3CeCl6,-2.4744575025680686
mp-632715,Cs3CeF6,-3.474090983576069
mp-1226409,Cs3Cl5O,-1.3523537601300772
mp-562420,Cs3ClO,-1.6178616681261382
mp-29287,Cs3CoBr5,-1.3444969431800768
mp-1105622,Cs3CoCl5,-1.8783143133245208
mp-1206497,Cs3CoF6,-2.6632797045760697
mp-1196088,Cs3CoI4NO3,-1.2326737349792245
mp-569323,Cs3CoI5,-1.0717238792911878
mp-23451,Cs3Cr2Br9,-1.2814298249014775
mp-1193179,Cs3Cr2Cl9,-1.9361772587829067
mp-621938,Cs3Cr2I9,-0.9255167127586204
mp-614750,Cs3CrF7,-2.9636155783591533
mp-669419,Cs3Cu2(BiS2)5,-0.9163699849622852
mp-1194744,Cs3Cu20Te13,-0.2016726155172416
mp-582423,Cs3Cu2Br5,-1.2131268478620691
mp-582024,Cs3Cu2Cl5,-1.6649072809920686
mp-23481,Cs3Cu2I5,-1.0069631146120688
mp-1196135,Cs3Cu3Cl8O,-1.4440361717300454
mp-16543,Cs3Cu5O4,-1.0907223271767243
mp-560345,Cs3CuTeS9,-0.9344476917987992
mp-1206092,Cs3DyCl6,-2.4739065238180684
mp-1178583,Cs3DyO3,-2.209893862302956
mp-1193312,Cs3Er2Br9,-1.9127568549014773
mp-1194135,Cs3Er2I9,-1.500787934544335
mp-1226424,Cs3Er5(PS4)6,-1.488924638920469
mp-1213797,Cs3ErCl6,-2.512992110068069
mp-757032,Cs3ErO3,-2.226272524624384
mp-1229260,Cs3Eu(Si2O5)3,-3.109303667194826
mp-1207159,Cs3EuF6,-3.2607680870760687
mp-29575,Cs3Fe2Cl9,-1.7242528777114785
mp-619767,Cs3Fe2F9,-2.9604528578093343
mp-1200802,Cs3Fe4(PO4)5,-2.5131144795885936
mp-1106332,Cs3FeBr5,-1.3682783454022989
mp-1205629,Cs3FeF6,-2.9672268975760687
mp-1199975,Cs3FeMo4O15,-2.1703737444508997
mp-1193282,Cs3FeS3,-1.185011686186885
mp-1194302,Cs3FeSe3,-0.8699900545574201
mp-556103,Cs3Ga2F9,-3.074054488166478
mp-541678,Cs3GaAs2,-0.4608157810201152
mp-1112368,Cs3GaBr6,-1.3709771878620691
mp-1113231,Cs3GaCl6,-1.976074378818069
mp-1113117,Cs3GaF6,-3.067228764576069
mp-1114197,Cs3GaI6,-1.0328297578620689
mp-770463,Cs3GaO3,-1.8015040749815283
mp-1201960,Cs3GaP2,-0.39853823444273395
mp-542448,Cs3GaSe3,-1.0789985092002772
mp-1194926,Cs3Gd(PO4)2,-2.9555683559218857
mp-1112364,Cs3GdCl6,-2.4640262698180693
mp-1183903,Cs3Ge,0.2254844228448276
mp-1226537,Cs3Ge2Sb3O13,-2.0849564283271755
mp-510341,Cs3Ge4Au,-0.2754244667025865
mp-1204552,Cs3Ge9(H3N)2,-0.2868473686300341
mp-582708,Cs3GeAsSe5,-0.7979784299089439
mp-17973,Cs3GeF7,-3.032881478813699
mp-1193194,Cs3GeSe3,-0.99203822455742
mp-1193606,Cs3GeTe3,-0.8188106608743843
mp-1226414,Cs3H(SF6)2,-2.4604720538692053
mp-1226195,Cs3H(SeO4)2,-1.6899508285305849
mp-1196740,Cs3H12N4F3,-1.1771138534159404
mp-643006,Cs3H5Pd,-0.3155746290800769
mp-643005,Cs3H5Pt,-0.4029864824134101
mp-1203208,Cs3Hf2CuTe10,-0.7252648102262933
mp-1197320,Cs3Hf2P5S18,-1.2346436483021423
mp-1185553,Cs3Hg,0.0065368128448276535
mp-11027,Cs3Hg20,-0.1598313295052474
mp-1202741,Cs3HgBr5,-1.38276010651341
mp-27354,Cs3HgCl5,-1.8648723199911883
mp-651121,Cs3HgI5,-1.1597848708189662
mp-1192709,Cs3Ho2Br9,-1.914904417044335
mp-1206492,Cs3HoCl6,-2.4748228773180694
mp-768211,Cs3HoO3,-2.2270541896243845
mp-1184038,Cs3I,-0.6323280871551724
mp-1206444,Cs3IO,-1.3893817719741377
mp-1213723,Cs3IO5,-1.5051210833189657
mp-27172,Cs3In2Cl9,-1.9268395606876685
mp-1232408,Cs3In3(PO4)4,-2.5605372766227728
mp-1112651,Cs3InBr6,-1.4139090301954025
mp-1112991,Cs3InCl6,-2.002868647151402
mp-1112970,Cs3InF6,-2.998585250909404
mp-1112969,Cs3InI6,-1.0876667851954018
mp-28381,Cs3InO3,-1.6338996601005755
mp-1198384,Cs3InP2,-0.3189113670816231
mp-1213759,Cs3IrBr6O,-0.942839847488244
mp-1183940,Cs3K,0.04402501959482763
mp-1227037,Cs3K5Mo8(P2O11)4,-2.4954492714818164
mp-555611,Cs3KRe6C6(S4N3)2,-0.7094982529466894
mp-1226678,Cs3KZr2(Si3O10)2,-2.913424935050648
mp-1214521,Cs3La(MoO4)3,-2.5007511659800343
mp-1213905,Cs3LaBr6,-1.9327280701120688
mp-582080,Cs3LaCl6,-2.538571750818069
mp-1188821,Cs3LaI6,-1.5728453483620692
mp-1203144,Cs3LaN18,-0.42554407347548495
mp-768536,Cs3LaO3,-2.1621924356958133
mp-1213966,Cs3Li2Al(MoO4)4,-2.3774887591777185
mp-1080005,Cs3Li2Br5,-1.6858139138620694
mp-570756,Cs3Li2Cl5,-2.1780891384920684
mp-558728,Cs3Li2F5,-2.946201756957069
mp-1213707,Cs3Li2Fe(MoO4)4,-2.2198736111007955
mp-642261,Cs3Li2Ga(MoO4)4,-2.2614199441777183
mp-1181918,Cs3Li2I5,-1.4074724453620688
mp-1019615,Cs3Li4(BO2)7,-2.707623967718596
mp-606711,Cs3LiCl4,-2.159892226457586
mp-559766,Cs3LiF4,-2.9274336160475865
mp-569238,Cs3LiI4,-1.4520076773275865
mp-1213704,Cs3LiPb4,-0.2496553535775861
mp-568137,Cs3Mg2Cl7,-2.2762319917867244
mp-720658,Cs3Mg3In(PO3)12,-2.7643310169576063
mp-643895,Cs3MgH5,-0.2815111613022986
mp-648179,Cs3Mn3V4O16,-2.3268485762115647
mp-562193,Cs3Mn4(PO3)12,-2.6368167978759094
mp-27332,Cs3MnBr5,-1.5108724254022992
mp-504451,Cs3MnCl5,-2.0498425427689657
mp-559361,Cs3MnF7,-2.9082458352646072
mp-643706,Cs3MnH5,-0.15568489074674316
mp-569118,Cs3MnI5,-1.2176676442911871
mp-1226446,Cs3MnZn3(PO3)12,-2.5744381568235446
mp-583278,Cs3Mo15Se17,-0.6544341437061267
mp-619752,Cs3Mo2(O2F)3,-2.496222672835049
mp-23015,Cs3Mo2Br9,-1.1418869499014777
mp-1184398,Cs3Mo2BrO7,-2.154194961720822
mp-541742,Cs3Mo2Cl9,-1.7929884105686205
mp-571531,Cs3Mo2I9,-0.7949472784729065
mp-566271,Cs3Mo4P3O16,-2.3137355671172792
mp-652144,Cs3Mo5P6O25,-2.5168313689160984
mp-617548,Cs3Mo5P7O24,-2.4137008221441203
mp-622048,Cs3Mo6(P5O19)2,-2.5771717145184074
mp-677061,Cs3MoC6(SN2)3,0.06530533223220022
mp-778950,Cs3NO4,-1.364625323250086
mp-17707,Cs3Na2SnP3,-0.3837462116721405
mp-607931,Cs3NaLi2(BO3)2,-2.3392108981752875
mp-630851,Cs3NaPb4,-0.2390438310775864
mp-1192748,Cs3Nb2I9,-0.9563598952586204
mp-669313,Cs3Nb2S11,-1.3148632123942618
mp-1197158,Cs3Nb2Se11,-0.7797558933219966
mp-1213734,Cs3Nb6SBr17,-1.1928628302845627
mp-1201443,Cs3Nb9(TeO8)4,-2.6345074690337644
mp-1197800,Cs3Nd(MoO4)3,-2.484798500190563
mp-572442,Cs3Nd(PS4)2,-1.4681287123504578
mp-582081,Cs3NdCl6,-2.5040056253180696
mp-985605,Cs3Ni,0.7097188303448274
mp-1189297,Cs3NiCl5,-1.8224891361022988
mp-614768,Cs3NiF7,-2.44084115972279
mp-23636,Cs3Np(Cl2O)2,-2.5853852517910694
mp-510262,Cs3O,-0.9351244337176724
mp-1204998,Cs3P11(H3N)3,-0.4121811618043125
mp-1213859,Cs3P3HO9,-2.378482430932454
mp-16108,Cs3P6N11,-0.8045540585078903
mp-541113,Cs3P7,-0.43917106336206896
mp-572271,Cs3P7Pb2O21,-2.596372263935475
mp-559808,Cs3PO4,-2.484229069470444
mp-583193,Cs3PSe4,-0.8973424340798184
mp-1183951,Cs3Pb4Au,-0.2678339129525864
mp-1213701,Cs3PdF5,-2.5157685688411875
mp-1113156,Cs3PdF6,-2.487470310576069
mp-1214290,Cs3Pr(MoO4)3,-2.481378174532668
mp-1226429,Cs3Pr5(PS4)6,-1.5218185776046795
mp-1213891,Cs3PrCl6,-2.4915778285680688
mp-1206084,Cs3PrF6,-3.4836743735760693
mp-1064000,Cs3Pt,0.24953758284482785
mp-862689,Cs3Rb,0.044055186508620725
mp-1226988,Cs3Rb5Mo12(P3O17)4,-2.4441281643105914
mp-1188289,Cs3Re2Cl10O,-1.7084777192169187
mp-1118943,Cs3Re2N5,-0.4243072780520691
mp-669364,Cs3Re3(SI)4,-1.1808033383836207
mp-1213776,Cs3Re6(S4Cl3)2,-1.373754768725248
mp-1227999,Cs3Re6(SCl)7,-1.4019034208642691
mp-1197752,Cs3Re6Se8(Cl3O)2,-0.8290680821772282
mp-1213725,Cs3ReO5,-2.1524345672078544
mp-1197124,Cs3Rh9(CO)19,-0.9939126694224136
mp-541646,Cs3Ru2Cl9,-1.5906587537829064
mp-27629,Cs3Sb2Cl9,-1.8041217919971924
mp-622000,Cs3Sb2N3(O3F2)3,-1.9470038488761163
mp-29970,Cs3Sb5O14,-1.9753597255054856
mp-1226651,Cs3Sb5S9,-0.944107920304894
mp-1226687,Cs3Sb5Se9,-0.5818965494684964
mp-1112952,Cs3SbBr6,-1.3282175753620684
mp-1112353,Cs3SbCl6,-1.8936964113180683
mp-1112602,Cs3SbF6,-2.865451416076069
mp-1204671,Cs3SbH2S4O,-1.2817879100782448
mp-1112968,Cs3SbI6,-1.0324436243620692
mp-562072,Cs3SbO3,-1.784016104267241
mp-1201472,Cs3SbO4,-1.908292736390086
mp-1193894,Cs3SbS3,-1.258492478686884
mp-1204783,Cs3SbS4,-1.2437584427963366
mp-1192816,Cs3SbSe3,-0.9688744934859918
mp-17811,Cs3SbSe4,-0.8920910256869607
mp-1213834,Cs3Sc2Br9,-1.832731372401477
mp-637194,Cs3Sc2Cl9,-2.511677426640049
mp-1112351,Cs3ScBr6,-1.7794747638620692
mp-1203917,Cs3ScCl6,-2.4394027035680685
mp-1112965,Cs3ScF6,-3.56441012857607
mp-1113076,Cs3ScI6,-1.4037243948620692
mp-768976,Cs3ScO3,-2.28193623533867
mp-1183907,Cs3Si,0.3957990565948277
mp-13748,Cs3SiF7,-3.3460379215409715
mp-572833,Cs3Sm(PS4)2,-1.464897489136172
mp-1193676,Cs3Sm2N9,1.3365134199970936
mp-1226868,Cs3Sm7Se12,-1.8095188283748045
mp-1226825,Cs3Sm7Te12,-1.4220568334600316
mp-1112348,Cs3SmCl6,-2.4586471130680687
mp-1181655,Cs3Sn4Au,-0.24641889232758585
mp-1193021,Cs3SnTe3,-0.8684472644458131
mp-1183952,Cs3Sr,0.16536786159482764
mp-572625,Cs3SrCu2C7(SN)7,-0.549432713332155
mp-556091,Cs3Ta2S11,-1.3420725430192633
mp-562434,Cs3Ta5O14,-3.1960336470963937
mp-561942,Cs3TaO8,-1.7513168248850572
mp-17054,Cs3TaS4,-1.6400972437338366
mp-571397,Cs3Tb10C4Cl21,-2.2614282168530013
mp-669304,Cs3Tb2Br9,-1.9149773775205248
mp-1226739,Cs3Tb7Te12,-1.4106102719070015
mp-1112345,Cs3TbCl6,-2.4725303921514032
mp-696965,Cs3TbF6,-3.559084242909402
mp-1198887,Cs3Te13Mo12,-0.4482934133435949
mp-581635,Cs3Te17Mo15,-0.4079118485320196
mp-620471,Cs3Te22,-0.20995394714482807
mp-569484,Cs3Ti2Cl9,-2.2067205843781443
mp-1203892,Cs3Ti3Te11,-0.7424533525659243
mp-1112963,Cs3TiF6,-3.299413532242736
mp-12244,Cs3TiF7,-3.446230245783396
mp-1213694,Cs3Tl2Br9,-1.0936237991871922
mp-1192769,Cs3Tl2Cl9,-1.677553685211478
mp-1112647,Cs3TlBr6,-1.2660862073620691
mp-1112344,Cs3TlCl6,-1.821424953318069
mp-561827,Cs3TlF6,-2.6611262080760687
mp-1112949,Cs3TlI6,-0.9761124423620692
mp-1226140,Cs3TlNi3F10,-2.4283690088541583
mp-756122,Cs3TlO3,-1.3689539153386698
mp-1201357,Cs3Tm11Te18,-1.3179900493318968
mp-669308,Cs3Tm2I9,-1.4962783852586203
mp-1112342,Cs3TmCl6,-2.4778701648180688
mp-756459,Cs3TmO3,-2.248338439981528
mp-557858,Cs3U2Ge2O11,-2.8634435254094828
mp-1201643,Cs3U2PO10,-3.1505853786414724
mp-1205746,Cs3UF6,-3.2198391395760697
mp-1105709,Cs3V(Cl3O2)2,-1.1988737766557631
mp-1226167,Cs3V2O2F7,-3.0107374346036204
mp-624117,Cs3V4Te2ClO14,-2.214527993724195
mp-1206041,Cs3VF6,-3.0534271225760685
mp-644672,Cs3VH8(Cl3O2)2,-1.7070976478245754
mp-1200171,Cs3VS4,-1.5332376740463372
mp-1120763,Cs3VSe4,-1.041440455374461
mp-568614,Cs3W2Cl9,-1.6816302202114781
mp-1119092,Cs3W2N5,-0.6536908020520699
mp-1019614,Cs3Y(PO4)2,-2.9704028580647432
mp-1238356,Cs3Y2(H2N)9,-0.3085933848500213
mp-568937,Cs3Y2Br9,-1.9148523320443347
mp-1192829,Cs3Y2Cl9,-2.5909541080686203
mp-1226222,Cs3Y7Se12,-1.8266558164429856
mp-1112645,Cs3YBr6,-1.8467710788620693
mp-1112341,Cs3YCl6,-2.4717891068180693
mp-1113151,Cs3YF6,-3.5696840275760686
mp-1112962,Cs3YI6,-1.4735414288620692
mp-770815,Cs3YO3,-2.206007708910099
mp-979983,Cs3Yb,0.1908903315948277
mp-558829,Cs3Yb(SO4)3,-2.4401579950425365
mp-1188115,Cs3ZnBr5,-1.5486180087356325
mp-570262,Cs3ZnCl5,-2.0797863388800764
mp-643702,Cs3ZnH5,-0.2889071907467431
mp-556385,Cs3ZnI4NO3,-1.3343884449792245
mp-1200647,Cs3ZnI5,-1.2670626856800764
mp-540822,Cs3Zr2I9,-1.2240614924014774
mp-1204981,Cs3Zr2P5S18,-1.2306366865164289
mp-567781,Cs3Zr7BCl20,-2.230230687435076
mp-1201250,Cs3Zr7MnCl20,-2.1465630202845385
mp-1200467,Cs4(BS)9,-1.0556872616540955
mp-1198415,Cs4(BSe)9,-0.6036454371441515
mp-1197340,Cs4AsH5Se3O16,-1.6076177653003043
mp-1104686,Cs4Au6S5,-0.9005528683426728
mp-560944,Cs4Ba(PO3)6,-2.797960842420163
mp-1198646,Cs4BaV6O18,-2.530354836114744
mp-23583,Cs4BiSbCl12,-1.7958957888304212
mp-561834,Cs4CO4,-1.5754803153975083
mp-619753,Cs4CdNi3F12,-2.5618232397053795
mp-1196471,Cs4Co3F10,-2.6863544277486815
mp-505031,Cs4Cu3F10,-2.4090639168663284
mp-561495,Cs4CuSi2O7,-2.3918481238269704
mp-1226269,Cs4Fe(MoO4)3,-2.2009042422413785
mp-1191216,Cs4Fe2O5,-1.7216571132797804
mp-616251,Cs4Fe3F10,-2.8672357895133884
mp-1205381,Cs4FeO3,-1.438810842322198
mp-1201003,Cs4FeO4,-1.567315950258621
mp-1226399,Cs4FeSbCl12,-1.7102729316081993
mp-574485,Cs4Ga2Se5,-1.0485362434360306
mp-1226418,Cs4Ga3FeS8,-1.300269144207975
mp-1195705,Cs4Ge(PS3)4,-1.0742278553404294
mp-1195417,Cs4Ge(PSe3)4,-0.5643018672154293
mp-1202502,Cs4Ge5(PbS4)4,-1.061174854563021
mp-779716,Cs4GeO4,-1.8737144824808432
mp-1200610,Cs4GeTe6,-0.7066517140752353
mp-1200567,Cs4Hf3Se14,-1.0438653095304795
mp-771139,Cs4HfO4,-2.351458638869732
mp-1190726,Cs4In2S5,-1.3216625665278874
mp-1225983,Cs4InSbCl12,-1.824165411237829
mp-561672,Cs4IrO4,-1.4585660210919533
mp-628617,Cs4K2Cu(SiO4)2,-2.28511490651927
mp-1200353,Cs4K3U3Si4O20F,-3.1836419095719317
mp-561000,Cs4KLiFe2F12,-3.020653198855378
mp-15079,Cs4KLiGa2F12,-3.10264876435538
mp-562394,Cs4Li2(Si2O5)3,-2.968440685688058
mp-5476,Cs4Mg3F10,-3.438767981866328
mp-697948,Cs4Mg3H10,-0.3169550741780933
mp-690929,Cs4MgZr3(PO4)6,-3.0867345324390727
mp-1192853,Cs4Mn(AsS4)2,-1.083329747821839
mp-1226457,Cs4Mn3O6,-1.7896503657851983
mp-1228955,Cs4Na2ScGaF12,-3.3355751659553787
mp-562542,Cs4NaHf3H2F19,-3.564947214299228
mp-555696,Cs4Nb2Si8O23,-3.1141804827993944
mp-558142,Cs4Ni3F10,-2.5560957512780944
mp-1202549,Cs4Os2Cl10O,-1.6674827683045643
mp-866688,Cs4P2PdSe8,-0.7445395685242199
mp-569193,Cs4P2Se9,-0.6903439170971367
mp-574070,Cs4Pb9,-0.1906962753713521
mp-23436,Cs4PbBr6,-1.5918159986206897
mp-1190733,Cs4PbCl6,-2.091499640398872
mp-1238804,Cs4PbI6,-1.329133349075235
mp-1199752,Cs4PbO3,-1.3818073929471977
mp-542099,Cs4PbO4,-1.5183589141475091
mp-505186,Cs4Pr6C2I13,-1.3181723596931034
mp-1213695,Cs4Rb2Fe2O5,-1.4850280970590193
mp-683929,Cs4Re6C4S9N4,-0.8400921448485216
mp-652494,Cs4Re6S13,-1.1455257142452202