task_id,composition,formation_energy_per_atom
mp-1213942,CeN(ClO)4,-1.3851310400419998
mp-1214460,CeN2Cl5,-0.7303491216949993
mp-1197736,CeN3O13,-0.8545439428464702
mp-1227785,CeNb3O9,-3.2365811724038482
mp-1183755,CeNd3,0.08975767937500034
mp-1227197,CeNd3(Fe14B)2,-0.06207101340686282
mp-1226600,CeNd3C8,-0.10266071937500006
mp-1226623,CeNd4Zr3O14,-3.8503467780681815
mp-1226589,CeNdAl2O6,-3.6485961755
mp-1226518,CeNdAl4,-0.4587221612499993
mp-1226536,CeNdC4,-0.13629501541666755
mp-1183768,CeNdHg2,-0.36726257437499976
mp-570728,CeNdI4,-1.18167331125
mp-1226534,CeNdN2,-1.6434707130649988
mp-1226502,CeNdS2,-2.3720587439062504
mp-1226607,CeNdSi2,-0.6991541106249999
mp-1183819,CeNdZn2,-0.1463300543749999
mp-21188,CeNi,-0.3115932924999996
mp-1654,CeNi2,-0.3752752500000002
mp-10860,CeNi2B2C,-0.4809147703472216
mp-1226793,CeNi2B3,-0.4091940158333334
mp-1196766,CeNi2N17O24,-0.19756881307863491
mp-580354,CeNi3,-0.3896177404166667
mp-1095459,CeNi4B,-0.453310606944445
mp-1910,CeNi5,-0.3394064150000003
mp-574423,CeNi5Sn,-0.3913229421428578
mp-1193206,CeNi9Ge4,-0.3961833446428581
mp-1061766,CeNiAs,-1.0164828350000004
mp-1079455,CeNiAsO,-1.4736673065624997
mp-1191074,CeNiB4,-0.5833843165277769
mp-19741,CeNiC2,-0.22638269437499936
mp-20616,CeNiGe,-0.7369089491666673
mp-3541,CeNiGe2,-0.7210913774999996
mp-777024,CeNiO3,-2.64701842375
mp-1103629,CeNiP,-1.167150572380952
mp-1103296,CeNiPt,-0.6956810766666663
mp-22539,CeNiSb2,-0.7221931875000003
mp-579812,CeNiSb3,-0.5965377953333341
mp-21119,CeNiSn,-0.588055606666666
mp-1025558,CeNiSn2,-0.52713259125
mp-643790,CeNiSnH,-0.5963282234049991
mp-542856,CeNiSnH2,-0.5865276084480001
mp-10688,CeO,-3.2430129456250008
mp-1205900,CeO3,-2.4554842359375
mp-755074,CeOF,-4.093721720813334
mp-1226566,CeOsRu,-0.26823313666666593
mp-2154,CeP,-1.4976747460714277
mp-568080,CeP2,-1.0210422855952384
mp-722790,CeP2(HO4)2,-1.833221848963516
mp-1192958,CeP2(NO4)2,-1.5242195276189008
mp-1213838,CeP2N2O9,-1.2493829935925516
mp-22524,CeP2O7,-3.1274005330535717
mp-1183770,CeP3,-0.5211472928571429
mp-505610,CeP3H8O7,-1.6959325215336087
mp-1203734,CeP3O14,-1.870488719523808
mp-662607,CeP4(ClO)13,-1.5561499794258529
mp-1196668,CeP4H50C12Cl3O11,-0.8786523634950801
mp-1213804,CeP4NO12,-2.4575695272750804
mp-566,CeP5,-0.5081829417857145
mp-1199266,CeP5N2O15,-2.148446263661925
mp-1201068,CeP5O14,-2.8202435591607142
mp-12920,CePIr,-1.2052031790476174
mp-8382,CePO4,-3.4067005084127002
mp-1205728,CePOs2C,-0.4855064631785709
mp-7003,CePPd,-1.2011776723809529
mp-1080729,CePRu2C,-0.6447333301785718
mp-21372,CePRuO,-2.2316552508482133
mp-1006371,CePS,-1.7688924954017855
mp-561261,CePS4,-1.4738979211904768
mp-1183709,CePa3,0.05632374000000163
mp-1226494,CePaO4,-4.1286305325
mp-1206707,CePb2,-0.08602876666666681
mp-20225,CePb3,-0.34327596499999924
mp-1018661,CePbAu,-0.4810017333333334
mp-1183814,CePbAu2,-0.5637200049999995
mp-1214439,CePbO3,-2.581964834250001
mp-1018086,CePd,-0.6747180025000006
mp-1063522,CePd2,-0.4907726999999997
mp-1226474,CePd2Pt,-0.8969604425000002
mp-2092,CePd3,-0.8306567725000003
mp-1025415,CePd7,-0.4804500712500008
mp-1226749,CePdPt4,-0.6819349566666659
mp-1226507,CePdRh2,-0.6671549324999999
mp-1183863,CePm3,0.09375292687500014
mp-1183812,CePmMg2,-0.001215081874999857
mp-983551,CePmTl2,-0.2950025193749997
mp-983559,CePmZn2,-0.2396291118749998
mp-1226529,CePr2O6,-3.3369167997222227
mp-1183736,CePr3,0.09507898499999977
mp-1227066,CePr3Fe34,0.03962669052631446
mp-1226562,CePr3O8,-3.2581641283333327
mp-1226585,CePr4O10,-3.218934274833333
mp-1226498,CePrAl4,-0.4535931599999999
mp-1226526,CePrFe4,0.036829729999999714
mp-1183860,CePrHg2,-0.3693473499999995
mp-1183722,CePrMg2,0.0019880550000004327
mp-1226481,CePrO4,-3.481425587499998
mp-21245,CePt,-1.0858628800000003
mp-2109,CePt2,-1.011871024999999
mp-1226653,CePt2Au3,-0.5859665766666655
mp-11318,CePt3,-0.9735769175
mp-1226629,CePt4Rh,-0.6538157416666669
mp-542777,CePt5,-0.7058708233333336
mp-1226551,CePtRh,-0.8926355616666667
mp-1226492,CePu,0.16120915656250112
mp-1227015,CePu4,0.2278749765000015
mp-510122,CePu4Co3,0.03162102968749991
mp-1226700,CePuCo4,0.036389705520833836
mp-1226594,CePuFe4,0.1909110971875
mp-1183759,CePuO3,-3.055946992125
mp-1206583,CeRe2SiC,-0.4418009147500001
mp-22361,CeReB4,-0.578007605694444
mp-769239,CeReO4,-2.8201049487499987
mp-951,CeRh2,-0.7171588200000004
mp-1200659,CeRh2O5,-2.1599043954687502
mp-1518,CeRh3,-0.6435525325000002
mp-22519,CeRh3C,-0.3629170257499993
mp-637637,CeRhC2,-0.2684905881249993
mp-1213826,CeRhO3,-2.5680987307500005
mp-1079682,CeRhPb,-0.6434304788888896
mp-607,CeRu2,-0.2791007783333323
mp-1206127,CeRu3C,-0.2383899507500004
mp-1226581,CeRuRh,-0.4982922716666671
mp-1096,CeS,-2.3802589570312502
mp-1018663,CeS2,-2.153946116041668
mp-1213833,CeS2NO8,-1.926966932125417
mp-1183858,CeS3,-1.4516744430468762
mp-1182807,CeS4(N2O9)2,-0.4770379616025922
mp-1213818,CeSBr,-2.152627366770833
mp-1213844,CeSCl,-2.509474938274167
mp-4973,CeSF,-3.2914283234175006
mp-1203647,CeSO6,-2.2580678042578133
mp-387,CeSb,-1.0449520074999992
mp-680417,CeSb(SBr)2,-1.4186873176041666
mp-1102986,CeSb2,-0.774335968333333
mp-1079698,CeSb2Au,-0.7041972974999995
mp-1079881,CeSb2Pd,-0.8333699662499994
mp-1183738,CeSb3,-0.5547752712499996
mp-1078616,CeSb3Pd,-0.37338499000000025
mp-1095307,CeSbAu,-0.8133675049999992
mp-1101808,CeSbIr,-0.8851326900000002
mp-1204842,CeSbMo2O9,-2.41421245125
mp-1024986,CeSbPd,-0.9916471583333338
mp-1104316,CeSbPt5,-0.714338144285715
mp-22249,CeSbRh,-0.9820301175000002
mp-1103153,CeSbSe,-1.355071483697916
mp-30152,CeSbTe,-1.1357905633333327
mp-16097,CeSc3(BO3)4,-3.4534131870833336
mp-1226553,CeScAl4,-0.4200403699999993
mp-16275,CeScGe,-0.6237587983333329
mp-1226501,CeScPd6,-0.8580734862499995
mp-20953,CeScS3,-2.363783055937501
mp-1077197,CeScSb,-0.7356958449999998
mp-10087,CeScSi,-0.5382434833333333
mp-2563,CeSe,-1.8160097492968743
mp-1096430,CeSe2,-1.6296117203125
mp-21115,CeSi,-0.6526873887499995
mp-1898,CeSi2,-0.6580316266666664
mp-1080480,CeSi2Ag,-0.4992062950000005
mp-1079402,CeSi2Ir,-0.9444520987500002
mp-13475,CeSi2Ir3,-0.922793249999998
mp-1018666,CeSi2Mo2C,-0.5021305431249997
mp-1191823,CeSi2Ni9,-0.4797739124999995
mp-1226508,CeSi2OsRu,-0.8031769080000004
mp-1025411,CeSi2Rh,-0.92901951375
mp-1213768,CeSi2Rh3,-1.0158627575
mp-1025521,CeSi2Ru,-0.8210387362500002
mp-30043,CeSi2Ru3,-0.6803062391666662
mp-1226491,CeSi2RuRh,-0.9875648710000008
mp-1068906,CeSi3Ir,-0.8314671079999997
mp-29466,CeSi3N5,-1.4140188510444445
mp-1068364,CeSi3Os,-0.6538818689999999
mp-1207122,CeSi3Pt,-0.7997444620000003
mp-1070394,CeSi3Rh,-0.8188965879999998
mp-13120,CeSi3Ru,-0.7222340870000004
mp-31051,CeSi4Ni9,-0.5829393028571427
mp-1072085,CeSi5,-0.2452697266666668
mp-1226531,CeSiBIr3,-0.7131970511111115
mp-22225,CeSiBO5,-3.3728525420312514
mp-1226584,CeSiBRh3,-0.7739184111111103
mp-1206173,CeSiGe,-0.5830915283333328
mp-1226545,CeSiGePd2,-0.8474482989999998
mp-1226517,CeSiGeRh2,-0.9619333949999996
mp-604496,CeSiHRu,-0.7782801546549996
mp-1105540,CeSiIr2,-0.9927227237499991
mp-651175,CeSiNO2,-2.6436347763093315
mp-20710,CeSiNi,-0.7447437033333332
mp-1072537,CeSiNi4,-0.5838066183333327
mp-10523,CeSiO4,-3.5817252441666665
mp-1205921,CeSiOs2C,-0.5007382817499988
mp-651900,CeSiP3,-0.7134425045357133
mp-1213807,CeSiPd,-0.8799035887499992
mp-1181683,CeSiPd2,-0.8550198318750004
mp-1072580,CeSiPt,-1.110144171666666
mp-1213785,CeSiRh,-0.8717599391666665
mp-31078,CeSiRh2,-0.9972942749999998
mp-8653,CeSiRu,-0.7609260900000004
mp-1205654,CeSiRu2C,-0.5790802117499994
mp-1226552,CeSm,0.11449444875000035
mp-1006246,CeSm3,0.08203711312499973
mp-1226571,CeSm3S4,-2.3666998567187507
mp-1226503,CeSmB12,-0.4873010123214294
mp-1226561,CeSmFe4,0.13036964958333405
mp-570470,CeSmI4,-1.1563644254166665
mp-1183845,CeSmMg2,-8.956249994973575e-07
mp-754040,CeSmO2,-3.17869544625
mp-1183757,CeSmTl2,-0.2911730131249999
mp-1183758,CeSmZn2,-0.22806144062499945
mp-510359,CeSn2Rh,-0.6883959987499989
mp-1911,CeSn3,-0.5330780312499996
mp-1198476,CeSn3Ru,-0.4745904869999997
mp-11081,CeSnAu,-0.7204543866666663
mp-867310,CeSnAu2,-0.6548102362499995
mp-20835,CeSnIr,-0.8422096627777762
mp-1226511,CeSnO4,-2.8468976683333334
mp-21490,CeSnPd,-0.8319284583333335
mp-20834,CeSnPt,-0.9865515350000004
mp-12374,CeSnRh,-0.8854676172222224
mp-610687,CeSnRu,-0.6246060833333331
mp-505070,CeTa3O9,-3.4843899950961545
mp-1213884,CeTa7O19,-3.4319501582870364
mp-1183701,CeTaO3,-3.069440192750001
mp-22074,CeTaO4,-3.6442073183333314
mp-1226851,CeTaTiO6,-3.6204028521296285
mp-1525,CeTe,-1.359640765
mp-505536,CeTe2,-1.2098403933333337
mp-571571,CeTe3,-1.00988509875
mp-1102615,CeTeCl,-1.94113503692
mp-1226523,CeTh,0.011787035000001113
mp-752798,CeTh2O6,-4.234122286388889
mp-1226520,CeTh2S3,-2.2435655136979165
mp-1183732,CeTh3,-0.008391154999999983
mp-1226717,CeTh3Al2,-0.19667815499999955
mp-1226598,CeTh3O8,-4.272017325
mp-1226577,CeTh4O10,-4.294418920166667
mp-760080,CeTh9O20,-4.3404049275
mp-1226486,CeThB12,-0.5036802057142852
mp-1226547,CeThB8,-0.6282417938333339
mp-1226555,CeThC2,-0.15814751937500038
mp-1226550,CeThCN,-0.9576715677824996
mp-1226556,CeThN2,-1.739687438689998
mp-36734,CeThO4,-4.159030469166666
mp-1226483,CeThS2,-2.2794465770312504
mp-1226485,CeThSi4,-0.631205363333334
mp-1227587,CeThUS5,-2.2187883825390635
mp-19860,CeTiGe,-0.5708208988888887
mp-1227002,CeTiNbO6,-3.4991059910185194
mp-754524,CeTiO3,-3.5133697860833344
mp-1206755,CeTl,-0.2438472325000003
mp-1213849,CeTl(MoO4)2,-2.4058115020833326
mp-1214015,CeTl(PO3)4,-2.791943052837301
mp-1194799,CeTl(PS3)2,-1.1745428463660716
mp-1195195,CeTl(PSe3)2,-0.6259697913348212
mp-1213822,CeTl(WO4)2,-2.466234636666666
mp-1213909,CeTl2(PO3)5,-2.6755076925854038
mp-638100,CeTl2P2S7,-1.1197364450186018
mp-863765,CeTl5Co2(NO2)12,-0.9902406543990916
mp-555459,CeTl5Cu2(NO2)12,-0.9313386201945462
mp-579665,CeTl5Fe2(NO2)12,-0.9886191221263644
mp-565250,CeTl5Ni2(NO2)12,-0.9516703504218176
mp-867298,CeTlAg2,-0.1613259062500001
mp-867361,CeTlAu2,-0.5101197162500002
mp-1018668,CeTlCd,-0.21580166666666692
mp-1195336,CeTlP2S7,-1.1489962943384753
mp-30512,CeTlPd,-0.5736939483333328
mp-1078723,CeTlSe2,-1.0796274705468756
mp-1079792,CeTlTe2,-0.8089784975000001
mp-1183813,CeTm3,0.08983578750000021
mp-1226595,CeTm4S7,-2.398452358203126
mp-1184197,CeTmIn2,-0.3760794791666662
mp-1183796,CeTmMg2,0.007936372500000122
mp-1213788,CeTmO3,-3.8652882767499994
mp-541836,CeTmS3,-2.442382671437501
mp-1226640,CeU(Pt4Au)2,-0.656804814166667
mp-1226535,CeU2O6,-3.872121538611111
mp-1227523,CeU2S5,-2.0356545581640635
mp-1226646,CeU3Al8,-0.21393619666666552
mp-1226701,CeU4C5,-0.0953810913749976
mp-1226573,CeU4N5,-1.5428142911899996
mp-1226587,CeU4O10,-3.829627889499999
mp-753493,CeU5O12,-3.822184480833332
mp-1226540,CeUB8,-0.5565736213333338
mp-1226563,CeUCN,-0.8479481627824992
mp-1226672,CeUFe4,0.009394508333331922
mp-1226527,CeUN2,-1.6167563286899984
mp-1226546,CeUO4,-3.9203832358333344
mp-1226480,CeUSi4,-0.4800784200000005
mp-1226774,CeUTe6,-0.7670013312500004
mp-1226591,CeUZn17,-0.13200894710526292
mp-1201268,CeV2IO9,-2.299709057596154
mp-1213836,CeVO2,-2.39117808625
mp-18769,CeVO3,-3.232602641750001
mp-19214,CeVO4,-3.168141909166668
mp-1226533,CeY,0.12080489500000093
mp-1226694,CeY(AlPd)2,-0.8250473122222215
mp-1226593,CeY(GaPd2)2,-0.8500741162499992
mp-1227301,CeY(GePt)4,-0.8798935629999995
mp-1226870,CeY(MgNi4)2,-0.4037063116666661
mp-1226510,CeY2(AlPd)3,-0.8397717555555554
mp-1006351,CeY3,0.08271037999999997
mp-1226574,CeY4Mg5,-0.06543112700000009
mp-1226611,CeY4Rh5,-0.8284912149999997
mp-1226610,CeY4S7,-2.4237694298697927
mp-1226710,CeY4Zn5,-0.3198324665000001
mp-1226528,CeYAl4,-0.4647863216666662
mp-1226612,CeYCo17,-0.0900893036842107
mp-1226470,CeYCo4,-0.17491775333333234
mp-1226542,CeYCu4,-0.20274413999999888
mp-1226946,CeYFe17,-0.0023586323684218033
mp-1226473,CeYFe4,-0.05543418500000049
mp-984048,CeYIn2,-0.4125630766666664
mp-1226769,CeYIn6,-0.4237334625000005
mp-866045,CeYMg2,-0.010902887499999458
mp-1226495,CeYMg4,-0.027411658333332884
mp-1226560,CeYNi4,-0.38201623166666704
mp-1226466,CeYRh4,-0.7025572816666662
mp-1006256,CeYTl2,-0.2988663899999997
mp-984049,CeYZn2,-0.25940590999999946
mp-986,CeZn,-0.17785121749999974
mp-21667,CeZn(BO2)5,-2.9112509919607836
mp-640370,CeZn11,-0.18657669749999992
mp-1385,CeZn2,-0.28608409499999965
mp-867186,CeZn2Ag,-0.2100272099999998
mp-1207054,CeZn2Co,-0.22758779999999976
mp-1226493,CeZn2Fe,0.011427762500000329
mp-1226565,CeZn2Ni,-0.10050447749999993
mp-1226538,CeZn2Ni3,-0.31809841166666786
mp-640118,CeZn3,-0.2804299768749998
mp-7247,CeZn3Cu2,-0.2524166874999996
mp-13118,CeZn3Pd2,-0.5645455741666671
mp-394,CeZn5,-0.24995934583333346
mp-1226469,CeZnAgAs2,-0.6002369969999997
mp-1226468,CeZnAgP2,-0.6456421978571427
mp-13549,CeZnAu,-0.5744479591666659
mp-1183743,CeZnAu2,-0.52104676625
mp-1213915,CeZnCo2,-0.1910816199999997
mp-1226509,CeZnCuP2,-0.7299852338571426
mp-1018671,CeZnGa,-0.4474927766666663
mp-19927,CeZnGe,-0.5797138708333325
mp-1006399,CeZnIn,-0.331882761111111
mp-1079342,CeZnNi,-0.3952873827777776
mp-1193027,CeZnNi2,-0.3324846549999994
mp-1226673,CeZnNi4,-0.3384659641666665
mp-13207,CeZnPO,-1.9938368483482136
mp-13382,CeZnPd,-0.632271380555554
mp-12504,CeZnPt,-0.865372968333333
mp-607738,CeZnRh,-0.6774424541666662
mp-22620,CeZnSbO,-1.8194517003125004
mp-1226464,CeZnSi,-0.5331759083333326
mp-20886,CeZnSn,-0.5084613058333325
mp-752706,CeZr11O24,-3.8250868088888867
mp-1213767,CeZr2F11,-4.140477275577857
mp-1226467,CeZr2O6,-3.801289234166668
mp-1226679,CeZr3Mn8,-0.0748543816666647
mp-1226592,CeZr3O8,-3.818889645
mp-1226489,CeZr4O10,-3.7779154541666657
mp-555444,CeZr6(PO4)9,-3.2566873867170334
mp-757324,CeZr6O14,-3.797424322738096
mp-752503,CeZr7O16,-3.822438948333333
mp-766370,CeZr9O20,-3.7975385881666655
mp-22724,CeZrF7,-4.190457339258889
mp-1019596,CeZrO4,-3.845824747500002
mp-1213787,Cl(OF)2,-0.7306778591280001
mp-29537,Cl2O,-0.3866804359233334
mp-31050,Cl2O7,-0.4469516244744439
mp-29504,ClF,-0.8768221034749999
mp-619575,ClF3,-1.1207972017075
mp-1213763,ClF5,-1.068880128201667
mp-1213922,ClO,-0.33203500100499994
mp-23207,ClO2,-0.5623416752533336
mp-22869,ClO3,-0.5019053005025
mp-1213825,ClO5,0.04662235508166705
mp-1181851,ClO6,0.05624685560571458
mp-753945,ClOF3,-1.0537083411160002
mp-1096874,Co(AsO2)2,-1.5700872764285714
mp-19292,Co(AsO3)2,-1.6503670941666668
mp-1069105,Co(BMo)2,-0.4805623586666655
mp-1104788,Co(BO2)2,-2.3981095819047624
mp-1226641,Co(BRh2)3,-0.22663776500000096
mp-7573,Co(BW)2,-0.4560188946666671
mp-27768,Co(BW)3,-0.4440245578571417
mp-694906,Co(Bi3O5)4,-1.602233362575758
mp-706332,Co(Bi5O8)5,-1.6017945969949492
mp-766738,Co(BiO3)2,-1.3656620515740738
mp-1181907,Co(BrO3)2,-0.10390072749999983
mp-1214071,Co(BrO6)2,0.16427382166666574
mp-22403,Co(C2N3)2,0.1972049105199987
mp-1191659,Co(C2O3)2,-0.5286755393181811
mp-609229,Co(CO)4,-0.8400922637499993
mp-762909,Co(CO3)2,-1.4498283616666674
mp-1069855,Co(ClO)2,-0.32233266980400044
mp-1181665,Co(ClO3)2,-0.0549873748911117
mp-31621,Co(ClO4)2,-0.6925452015018178
mp-773271,Co(CuO2)4,-0.8722348007692313
mp-1226484,Co(CuO3)2,-0.5249221563888887
mp-1043245,Co(GeO3)2,-1.6201149158333346
mp-1213770,Co(H3Cl)2,-0.275943968693333
mp-625953,Co(HO)2,-1.320401593948
mp-1204312,Co(IN2)3,1.4356320805720002
mp-1079998,Co(IN3)2,2.174896470635556
mp-647180,Co(IO3)2,-0.9956216749999992
mp-1182727,Co(Mo3O17)2,-0.8532292344512193
mp-675208,Co(Mo3Se4)4,-0.4801230571551714
mp-1215110,Co(MoO6)3,-0.4802639407954543
mp-7923,Co(MoS2)2,-0.9790014466071436
mp-1080142,Co(N2Cl)3,2.3085600695940003
mp-1214972,Co(N2O5)2,0.2216970765320004
mp-1079107,Co(N3Cl)2,2.3614666721333344
mp-1191682,Co(N3O4)3,0.04765326561727337
mp-1182597,Co(N4Cl)2,0.8050989494945459
mp-1214815,Co(NF3)4,-0.6130067343411763
mp-542071,Co(NO3)2,-1.0096531413622225
mp-773130,Co(NO3)4,-0.8734671393835297
mp-1190777,Co(NO4)2,-0.6370793095236371
mp-1104601,Co(NO5)2,-0.3869891682507697
mp-1193956,Co(NO6)2,-0.20029129165066686
mp-769882,Co(NiO2)2,-0.9720658514285716
mp-772058,Co(NiO2)4,-0.8388167115384616
mp-674355,Co(NiS2)2,-0.7987581344642862
mp-1226512,Co(NiSe2)2,-0.278927366339286
mp-1213782,Co(O2F)2,-0.2387652935542859
mp-1213753,Co(PO2)2,-1.7608300856122443
mp-547237,Co(PO3)2,-2.4162071601984128
mp-585227,Co(PO3)3,-2.385201323667583
mp-31550,Co(PO3)4,-2.2723979037394963
mp-1213861,Co(PO5)2,-1.2249825855219778
mp-12464,Co(PdSe)2,-0.2773519414375002
mp-19238,Co(PtO2)3,-1.0437779857500005
mp-1226583,Co(ReO3)2,-1.8401637836111115
mp-1181686,Co(ReO4)2,-2.063596670454544
mp-560516,Co(RhO2)2,-1.193509841428572
mp-1226570,Co(RhO3)2,-1.0543393363888884
mp-1078249,Co(RhSe2)2,-0.317753724910714
mp-772442,Co(SO4)2,-1.63974176407197
mp-1193389,Co(SbO2)2,-1.6558598692857145
mp-24845,Co(SbO3)2,-1.8406760936111108
mp-1190800,Co(SeO4)2,-0.5585263583806821
mp-1043669,Co(Si2O5)2,-2.715938061166667
mp-1042286,Co(SiO3)2,-2.4295989602777768
mp-29187,Co(SiP)3,-0.327724748418368
mp-1078078,Co(SiSe2)2,-0.09058572062499996
mp-12465,Co(TePd)2,-0.2933927710000006
mp-1203320,Co(W3Cl7)2,-1.0885675377685713
mp-1193835,Co(WCl5)2,-1.2060586871230763
mp-25472,Co(WO4)2,-1.7063383145454545
mp-1227035,Co10SnSb30,-0.15349843024390206
mp-1226643,Co11B4SbO20,-1.8443191537962964
mp-761492,Co11CuO16,-1.2705790457142854
mp-1226575,Co12Ge4C,-0.034412078750000484
mp-769432,Co15O28,-1.14545919732558
mp-685129,Co17Se20,-0.2165701346452699
mp-684822,Co19Te34,-0.18791380018867884
mp-997509,Co2(CO3)3,-1.532667225535714
mp-2956,Co2(GeS)3,-0.6677035768359376
mp-5094,Co2(GeSe)3,-0.3544528063476555
mp-2994,Co2(GeTe)3,-0.2178753315624995
mp-1101577,Co2(PO3)5,-2.356995839521104
mp-770008,Co2(SO4)3,-1.7740446357169124
mp-570152,Co2(SnSe)3,-0.3690639522851562
mp-866481,Co2(SnTe)3,-0.26674542125000045
mp-1229319,Co20(As4O19)3,-1.4108979609129209
mp-542728,Co21(B3Mo)2,-0.2091032937931022
mp-505544,Co21(B3Sb)2,-0.18152167931034435
mp-672221,Co21(B3W)2,-0.2192768527586199
mp-1193515,Co21(GeB3)2,-0.20373526586206767
mp-541852,Co21(ReB3)2,-0.18819022913793
mp-542739,Co21(SnB3)2,-0.17622410724137855
mp-761377,Co21Cu3O32,-1.3437838108928568
mp-851287,Co21O40,-1.1055638583606555
mp-1194407,Co22B6Sb,-0.09377873982758593
mp-639154,Co23B6,-0.14893829344827605
mp-705564,Co23O32,-1.3191384156363648
mp-762204,Co25Cu11O48,-1.2472219463095229
mp-684829,Co27Se32,-0.21986983093220414
mp-764992,Co29Ge13O56,-1.6755071917857154
mp-705563,Co29O40,-1.272933841884058
mp-1181748,Co2Ag3SbO6,-1.2154035593749997
mp-18206,Co2As,-0.1353089824999998
mp-705094,Co2As2O5,-1.5271834118055554
mp-1204772,Co2As2O7,-1.599333738613636
mp-1196672,Co2As2O9,-1.2534450774038457
mp-559418,Co2AsClO4,-1.5348294160325002
mp-1202958,Co2AsHO5,-1.5621646180411106
mp-1203275,Co2AsO5,-1.5173982995312496
mp-493,Co2B,-0.24197728555555525
mp-510055,Co2B2O5,-2.189043442731481
mp-1213790,Co2BO4,-1.852121735238094
mp-1199458,Co2BP4H2Pb4ClO18,-2.2428439019761903
mp-690537,Co2Bi11O20,-1.5389762415151516
mp-1201553,Co2BiB(PO5)2,-2.3247593999032743
mp-22488,Co2C,0.11049890708333383
mp-1178537,Co2C2O7,-1.4863909851136363
mp-617011,Co2C5SO5,-0.7953295483894235
mp-1182699,Co2CN9(Cl2O3)2,0.4488519241722729
mp-1102538,Co2ClO3,-0.9552221861683332
mp-1226931,Co2Cu3(CN)12,0.4403453060841381
mp-19955,Co2CuGe2,-0.17859289900000022
mp-761472,Co2CuO4,-1.20944163857143
mp-3925,Co2CuS4,-0.7850538030357147
mp-561853,Co2GeO4,-1.6036327735714275
mp-763815,Co2H21I7(N2O)3,-0.6533467324115386
mp-744397,Co2H21S3(NO2)6,-1.0659200234088069
mp-604239,Co2H34N12Cl3O10,-0.8295547042445905
mp-1199703,Co2H36N13Cl5O3,-0.7299527845137281
mp-542517,Co2Hg2H2S2O11,-1.5800065137692112
mp-1214084,Co2Hg2H3(SO5)2,-1.202613542709737
mp-771497,Co2HgO4,-1.1068270428571432
mp-1191860,Co2Ir(NCl)10,0.3713505371130427
mp-1182516,Co2Mo3,0.21127690400000035
mp-542316,Co2Mo3N,-0.22131012164666566
mp-19612,Co2Mo3O8,-1.705195589999999
mp-505574,Co2Mo4C,-0.05204953303571358
mp-644838,Co2Mo4N,-0.19188154391142728
mp-1023124,Co2MoS4,-0.6710706737500008
mp-22631,Co2N,-0.05590330579333388
mp-1199828,Co2N15O11,0.11352077573392855
mp-1182683,Co2N16O9,0.8111582265062962
mp-1213868,Co2NO6,-0.9724753577644442
mp-1226586,Co2Ni2Te5,-0.15225990777777712
mp-762172,Co2Ni3Sb(PO4)6,-2.037032230218254