task_id,composition,formation_energy_per_atom
mp-8857,Cs2As2Pd,-0.5111309334827588
mp-1206558,Cs2As2Pt,-0.5038673264827587
mp-1192609,Cs2As2Se6O,-0.4893068632023908
mp-15557,Cs2As3,-0.4440564044827589
mp-558846,Cs2As4Pd3O14,-1.5614964495614694
mp-650280,Cs2As8S13,-0.7224185824011428
mp-1112632,Cs2AsAuBr6,-0.9222924267413796
mp-1112619,Cs2AsAuCl6,-1.4411278476973794
mp-1113149,Cs2AsAuF6,-2.307846258455379
mp-1112929,Cs2AsAuI6,-0.6967288057413793
mp-989511,Cs2AsBrCl6,-1.4241859776973793
mp-1226376,Cs2AsH3SeO8,-1.6667807671245023
mp-29194,Cs2Au2Se3,-0.6759455847421495
mp-1097162,Cs2AuBr,-0.6537393806034482
mp-1093718,Cs2AuCl,-0.8788871339184483
mp-1093896,Cs2AuI,-0.5404467131034483
mp-1213928,Cs2B12H4F9,-1.5745972650964368
mp-1213751,Cs2B12HF12,-1.9511116925116223
mp-1199225,Cs2B12OF12,-1.9531950420534745
mp-1019604,Cs2B2S3O13,-2.338888184834232
mp-1196353,Cs2B6NO2,0.162624699564201
mp-558539,Cs2Ba2(CO3)3,-2.4683189090571123
mp-754272,Cs2Ba2O3,-2.1083042165948283
mp-1019605,Cs2Ba3(P2O7)2,-3.0596047946080533
mp-1226237,Cs2BaBr4,-1.953906023916256
mp-1229192,Cs2BaCl4,-2.5084439479219705
mp-755217,Cs2BaO2,-1.7997126564827588
mp-1019603,Cs2BaP2O7,-2.9029206137874595
mp-1203665,Cs2BaTa6(Br5O)3,-1.5677311520801405
mp-1193604,Cs2BeCl4,-2.1636961029219703
mp-5013,Cs2BeF4,-3.320193824239113
mp-755292,Cs2BeO2,-2.0329851509827583
mp-1080693,Cs2Bi2Pd,-0.3697175504827591
mp-555117,Cs2Bi4O7,-1.69020851528183
mp-1229208,Cs2Bi4Se7,-0.6478545182746186
mp-680317,Cs2Bi8Se13,-0.5310139188753279
mp-1112930,Cs2BiAuBr6,-1.0442532897413792
mp-1113443,Cs2BiAuCl6,-1.5735988546973794
mp-1113421,Cs2BiAuI6,-0.7970225427413791
mp-1201858,Cs2BiPWO8,-2.357407150927434
mp-1226161,Cs2BrCl,-1.9667711414184483
mp-989543,Cs2BrCl6F,-1.193966108816379
mp-1029699,Cs2CN2,-0.5856592198514251
mp-616458,Cs2CO3,-2.0797653320689653
mp-1079663,Cs2Ca(Cl2O)2,-1.882067670605978
mp-1213739,Cs2Ca2(SO4)3,-2.6578578297158577
mp-562057,Cs2Ca2Be3F12,-3.726329349431252
mp-677292,Cs2CaAl4(SiO4)4,-3.202794512465943
mp-1025267,Cs2CaBr4,-1.9378641414162558
mp-1025185,Cs2CaCl4,-2.5258401804219703
mp-15157,Cs2CaF4,-3.494277297810542
mp-697133,Cs2CaH4,-0.4052830934848273
mp-753803,Cs2CaO2,-1.9537714089827585
mp-1226202,Cs2CaP2O7,-2.9034798560791266
mp-989570,Cs2CaSnCl6,-2.19960250244738
mp-1202328,Cs2CaV2O7,-2.6492315882219817
mp-1200495,Cs2Cd2(MoO4)3,-2.066194648679674
mp-1201213,Cs2Cd3(B4O7)4,-2.6992782430424582
mp-559668,Cs2CdBi2S5,-1.0814002077726297
mp-1188970,Cs2CdFe(CN)6,-0.2560594927621116
mp-1194601,Cs2CdGe3S8,-1.0765142128509848
mp-1096400,Cs2CdHg,0.33237470314655165
mp-1103539,Cs2CdI4,-1.1808876717733992
mp-1195999,Cs2CdP2O7,-2.5511791975374587
mp-623165,Cs2Ce10Os2I17,-1.17484330298109
mp-1113262,Cs2CeAgBr6,-1.5662608922413788
mp-1113570,Cs2CeAgCl6,-2.16663087319738
mp-1113538,Cs2CeAgF6,-3.160239423955379
mp-1113271,Cs2CeAgI6,-1.2227681352413793
mp-572902,Cs2CeAsS3Cl2,-1.7989039467912546
mp-1101094,Cs2CeCl6,-2.442851897997088
mp-1113363,Cs2CeCuCl6,-2.121629448197379
mp-1113362,Cs2CeCuI6,-1.1607428152413788
mp-1198000,Cs2CeN5O17,-1.344697184822552
mp-768223,Cs2CeO3,-2.6874550160272985
mp-1213846,Cs2CeTa6(Br5O)3,-1.5574221941171769
mp-550254,Cs2Co(NO3)4,-1.311034536812305
mp-643125,Cs2Co(PO3)4,-2.580982442683433
mp-1213811,Cs2Co(SO7)2,-1.1364854872651986
mp-622214,Cs2Co2(MoO4)3,-2.0260366543375667
mp-558911,Cs2Co3S4,-0.9232990809626436
mp-1214168,Cs2CoBr4,-1.2148451953448276
mp-1193242,Cs2CoCl4,-1.7725039682791135
mp-1226314,Cs2CoCu3F10,-2.264974062144612
mp-610706,Cs2CoF6,-2.5111887643948663
mp-863299,Cs2CoH12(SO7)2,-1.7197776806928635
mp-1192894,Cs2CoI4,-0.9333399535591131
mp-547887,Cs2CoO3,-1.5116288960272992
mp-561830,Cs2CoS2,-1.0024765281077592
mp-8770,Cs2CoSe2,-0.7133178529202585
mp-542168,Cs2CoSiO4,-2.3293834546767247
mp-565644,Cs2Cr(NO3)5,-1.3417469520172651
mp-602267,Cs2Cr4Cd(HO4)4,-1.7209701689590302
mp-603285,Cs2Cr4Cu(HO4)4,-1.6162905124775466
mp-705345,Cs2Cr4O13,-1.7955719191402004
mp-557324,Cs2CrF6,-2.92718103883931
mp-633688,Cs2CrH2Cl5O,-1.8005728906548912
mp-1202581,Cs2CrH8Cl5O4,-1.6182382563836903
mp-647813,Cs2CrO4,-2.0833130885591142
mp-1192085,Cs2Cu2Sb2Se5,-0.5495192968529584
mp-556177,Cs2Cu2Si8O19,-2.885141551005284
mp-638252,Cs2Cu3(P2O7)2,-2.249023715803705
mp-1226365,Cs2Cu3NiF10,-2.200726132769612
mp-1106088,Cs2Cu3SnF12,-2.443786507871877
mp-28467,Cs2Cu5Se4,-0.4713481215262534
mp-1112612,Cs2CuAsCl6,-1.5084179036973793
mp-1113490,Cs2CuAuCl6,-1.3863043901973793
mp-1112959,Cs2CuAuF6,-2.13040789095538
mp-1112278,Cs2CuBiBr6,-1.0997740937413791
mp-1111471,Cs2CuBiCl6,-1.6584218956973793
mp-1110978,Cs2CuBiF6,-2.560270244455379
mp-1113070,Cs2CuBiI6,-0.8114846697413792
mp-1226412,Cs2CuBrCl3,-1.5427841638848274
mp-616439,Cs2CuCl4,-1.7095215143505418
mp-1025265,Cs2CuF4,-2.496988205310541
mp-28692,Cs2CuF6,-2.293822284394865
mp-542944,Cs2CuH12(SO7)2,-1.6688554955315746
mp-1198901,Cs2CuH8(SeO6)2,-1.4347359275424514
mp-1112273,Cs2CuMoBr6,-0.9582701652413796
mp-1113182,Cs2CuMoCl6,-1.5564990491973796
mp-1112885,Cs2CuMoI6,-0.6427001142413791
mp-540999,Cs2CuO2,-0.2457801929827585
mp-1191467,Cs2CuP2O7,-2.41978439753746
mp-19732,Cs2CuPb(NO2)6,-1.112333306440627
mp-1111879,Cs2CuSbBr6,-1.051753250741379
mp-1111461,Cs2CuSbCl6,-1.6010539936973793
mp-1112882,Cs2CuSbI6,-0.7708824387413792
mp-1196579,Cs2CuSi5O12,-2.884910346433189
mp-1113610,Cs2DyAgCl6,-2.2078226591973777
mp-1112927,Cs2DyAuCl6,-2.06811570819738
mp-540695,Cs2DyCl5,-2.5647823307767244
mp-1112958,Cs2DyCuCl6,-2.15399497619738
mp-1113595,Cs2ErAgCl6,-2.20888290569738
mp-1112928,Cs2ErAuCl6,-2.06885263869738
mp-1214000,Cs2ErCl5,-2.5663743420267244
mp-1112917,Cs2ErCuCl6,-2.15508998769738
mp-1196674,Cs2ErSi4O10F,-3.3354952247140988
mp-1195142,Cs2ErSi6O14F,-3.320372933691825
mp-1113566,Cs2EuAgCl6,-2.05446695769738
mp-1113420,Cs2EuAuCl6,-1.9484570936973795
mp-1113208,Cs2EuCuCl6,-2.0604424016973795
mp-1202238,Cs2Fe2(MoO4)3,-2.0803815839428306
mp-1200525,Cs2Fe2P3O8F7,-2.7694578612351077
mp-1188475,Cs2FeCl5O,-1.4656380172181989
mp-1213714,Cs2FeF5,-2.9685018791704736
mp-1213721,Cs2FeHF5,-2.369519182998199
mp-571284,Cs2FeNi(CN)6,-0.2043857180746116
mp-540988,Cs2FeO4,-1.5177548346305425
mp-1189477,Cs2FeOF5,-2.394288945512644
mp-556330,Cs2Ga2B2O7,-2.528472335345933
mp-572921,Cs2Ga3As5O18,-1.951847919282636
mp-1113553,Cs2GaAgBr6,-1.1118358212413793
mp-1113623,Cs2GaAgCl6,-1.6961501791973794
mp-1113583,Cs2GaAgF6,-2.7177842889553796
mp-1113594,Cs2GaAgI6,-0.8108544872413794
mp-1113416,Cs2GaAuBr6,-1.0194234982413792
mp-1113218,Cs2GaAuCl6,-1.5700159901973794
mp-1112947,Cs2GaAuF6,-2.533534706955379
mp-1112925,Cs2GaAuI6,-0.7603019372413797
mp-1113185,Cs2GaCuCl6,-1.6431934371973795
mp-1229172,Cs2GaFeS4,-1.2146618298329743
mp-1113302,Cs2GaHgBr6,-1.1057889522413793
mp-1113202,Cs2GaHgCl6,-1.6611262421973791
mp-1112903,Cs2GaHgI6,-0.8258504932413793
mp-562504,Cs2GaP3O10,-2.672195056646398
mp-29372,Cs2GaSb2,-0.4243608289827588
mp-1113592,Cs2GdAgCl6,-2.2008989621973787
mp-1112633,Cs2GdAuCl6,-2.061616303197379
mp-1213731,Cs2GdCl5,-2.5551928332767244
mp-1226191,Cs2Ge(TeO4)3,-1.7454778618007667
mp-572598,Cs2Ge2S5,-1.1669908991918116
mp-1226455,Cs2GeB4O9,-2.6726593397081544
mp-27882,Cs2GeCl6,-1.795493614108199
mp-8217,Cs2GeF6,-3.0747356005059774
mp-573150,Cs2GeO3,-2.073173639499521
mp-560216,Cs2GeP4O13,-2.6083816371117616
mp-1102254,Cs2GeSe3,-0.902130104699174
mp-1104024,Cs2GeSe4,-0.7842994659698276
mp-662549,Cs2GeTe4,-0.5822504349876846
mp-1190751,Cs2H2C2O5,-1.7635521425821623
mp-643010,Cs2H4Pt,-0.4751251624133985
mp-707803,Cs2H4RuNCl5O3,-1.4654635876139868
mp-758948,Cs2H6CO6,-1.6762556800255866
mp-643243,Cs2H6Pt,-0.47987519045931
mp-1096437,Cs2HCl,-0.8488090310734482
mp-1226215,Cs2Hf(WO4)3,-2.6008592456896547
mp-1238793,Cs2HfBr6,-1.6981804086015326
mp-1120741,Cs2HfCl6,-2.4207731929970886
mp-13948,Cs2HfF6,-3.785970723839311
mp-29398,Cs2HfI6,-1.2624377919348662
mp-1178405,Cs2HfO3,-2.8416546560272984
mp-1202194,Cs2Hg(BSe)9,-0.4487751283217874
mp-568335,Cs2Hg27,-0.09178914353151008
mp-1213712,Cs2Hg3(GeS4)2,-0.8875364489942531
mp-1104408,Cs2Hg3I8O,-0.5230962788331281
mp-1106156,Cs2Hg3Se4,-0.6004075579765326
mp-1112911,Cs2HgAsBr6,-0.9881429017413794
mp-1112907,Cs2HgAsCl6,-1.5110834156973794
mp-1112603,Cs2HgAsF6,-2.430756847455379
mp-1112908,Cs2HgAsI6,-0.7470892027413794
mp-1093817,Cs2HgAu,0.21369567189655148
mp-1113305,Cs2HgAuBr6,-0.9056641792413788
mp-1112640,Cs2HgAuF6,-2.06973940195538
mp-1112905,Cs2HgBiBr6,-1.1043617667413792
mp-1112906,Cs2HgBiCl6,-1.6325467536973797
mp-1113179,Cs2HgBiF6,-2.5414279664553794
mp-1113303,Cs2HgBiI6,-0.8454173647413793
mp-1183950,Cs2HgBr4,-1.2700717603448273
mp-1191136,Cs2HgC2SI4O,-0.4181113954751174
mp-1203522,Cs2HgCl4,-1.759794525243399
mp-8963,Cs2HgF4,-2.4613569695962565
mp-28421,Cs2HgI4,-1.0512271703448277
mp-1112948,Cs2HgIrF6,-2.161912141955379
mp-7232,Cs2HgO2,-1.2995784089827584
mp-1079232,Cs2HgPdCl6,-1.5148692931973795
mp-1112589,Cs2HgPdF6,-2.17352462295538
mp-1113296,Cs2HgSbBr6,-1.0626816847413794
mp-1112902,Cs2HgSbCl6,-1.5951417246973796
mp-1112957,Cs2HgSbF6,-2.54402272045538
mp-1113295,Cs2HgSbI6,-0.8086679177413792
mp-1093874,Cs2HgSe,-0.19437812025188567
mp-1185537,Cs2HgTe,-0.7553087481034482
mp-1213722,Cs2HoCl5,-2.566267816714224
mp-572805,Cs2I4O11,-1.1689045313919877
mp-1096010,Cs2IBr,-1.2763364156034482
mp-992141,Cs2IBrCl6,-1.206224584197379
mp-989516,Cs2ICl6F,-1.3652429728163793
mp-1194101,Cs2In(IO3)6,-1.1098149254906342
mp-21835,Cs2In2Sb3,-0.3598386173686369
mp-567752,Cs2In3,-0.14010389648275884
mp-1113554,Cs2InAgBr6,-1.1610522065747126
mp-1096926,Cs2InAgCl6,-1.7330359365307129
mp-1113588,Cs2InAgF6,-2.6756394702887127
mp-1113565,Cs2InAgI6,-0.8643389855747128
mp-1112893,Cs2InAsBr6,-1.0896999200747133
mp-1112894,Cs2InAsCl6,-1.6321288300307124
mp-1113140,Cs2InAsF6,-2.5931549227887123
mp-1112891,Cs2InAsI6,-0.8224365400747129
mp-1112924,Cs2InAuBr6,-1.0622754525747131
mp-1112620,Cs2InAuCl6,-1.6039269715307127
mp-1112611,Cs2InAuF6,-2.4769291882887123
mp-1113414,Cs2InAuI6,-0.8058004715747125
mp-1112892,Cs2InBiBr6,-1.2080219520747129
mp-1112889,Cs2InBiCl6,-1.7598281540307128
mp-989538,Cs2InBiF6,-2.7209757587887125
mp-1112890,Cs2InBiI6,-0.9240349080747128
mp-1200718,Cs2InCl5O,-1.7530515795330135
mp-1113481,Cs2InCuBr6,-1.111035523574713
mp-1112609,Cs2InCuCl6,-1.681907212530713
mp-1112627,Cs2InGaBr6,-1.2172889875747124
mp-1113201,Cs2InGaCl6,-1.7918801605307133
mp-1113099,Cs2InGaF6,-2.7814193792887125
mp-1113095,Cs2InGaI6,-0.9097455885747132
mp-1113300,Cs2InHgBr6,-1.1441814195747129
mp-1112904,Cs2InHgCl6,-1.6894972335307128
mp-1112901,Cs2InHgI6,-0.8685951545747129
mp-1113094,Cs2InSbBr6,-1.1625668740747124
mp-1112887,Cs2InSbCl6,-1.7106587670307127
mp-1113091,Cs2InSbF6,-2.684831004788713
mp-1113283,Cs2InSbI6,-0.8848906890747124
mp-1189428,Cs2IrCl5O,-1.558991156107088
mp-28651,Cs2IrCl6,-1.6093270991081994
mp-572797,Cs2IrF6,-2.499243764394865
mp-1200330,Cs2K2B10O17,-2.8121318814945298
mp-650532,Cs2K2Cd3O5,-1.4123467753886492
mp-1204303,Cs2K2Pd2N8O25,-1.1426179795821478
mp-556400,Cs2K2TeO5,-1.8006850574663786
mp-541234,Cs2K4Fe2O5,-1.548921679281831
mp-13687,Cs2KAgF6,-2.41718662275538
mp-1113061,Cs2KAlBr6,-1.5326367260413791
mp-1113059,Cs2KAlCl6,-2.18804803399738
mp-1113057,Cs2KAlI6,-1.1441249250413792
mp-1112792,Cs2KAsBr6,-1.2684991235413792
mp-1112625,Cs2KAsCl6,-1.8387887424973792
mp-1113137,Cs2KAsF6,-2.844028227255379
mp-1112793,Cs2KAsI6,-0.9737811755413794
mp-1112788,Cs2KAuBr6,-1.0695905460413793
mp-1112626,Cs2KAuCl6,-1.5960933919973792
mp-1112599,Cs2KAuF6,-2.3719094377553795
mp-1112789,Cs2KBiBr6,-1.404115490541379
mp-1111877,Cs2KBiCl6,-1.9813270234973792
mp-573204,Cs2KBiF6,-2.9729011332553794
mp-1113055,Cs2KBiI6,-1.093295231541379
mp-1112787,Cs2KCeBr6,-1.83979746904138
mp-1112872,Cs2KCeCl6,-2.4617896329973785
mp-1110986,Cs2KCeF6,-3.39568577475538
mp-1112784,Cs2KCeI6,-1.4660976560413794
mp-505662,Cs2KCo(CN)6,-0.31492309232461224
mp-558851,Cs2KCoF6,-2.7448587097553805
mp-1201008,Cs2KCr(CN)6,-0.2873410385746116
mp-1205683,Cs2KCrCl6,-2.02420318599738
mp-560956,Cs2KCrF6,-3.12805883375538
mp-6968,Cs2KCuF6,-2.583348585755379
mp-1112785,Cs2KDyCl6,-2.5103139789973787
mp-1113058,Cs2KErCl6,-2.512622040497379
mp-579605,Cs2KEuCl6,-2.31017394349738
mp-505660,Cs2KFe(CN)6,-0.2732282501371115
mp-559454,Cs2KFeF6,-3.016876477755379
mp-1112623,Cs2KGaBr6,-1.389034049041379
mp-1113050,Cs2KGaCl6,-2.00286201099738
mp-989531,Cs2KGaF6,-3.09511281875538
mp-1112783,Cs2KGaI6,-1.0421336230413794
mp-1113049,Cs2KGdCl6,-2.500330129997379
mp-1207104,Cs2KHoCl6,-2.51091077349738
mp-1113046,Cs2KInBr6,-1.4350313503747123
mp-1112759,Cs2KInCl6,-2.033060906330713
mp-989639,Cs2KInF6,-3.0326690410887123
mp-1113045,Cs2KInI6,-1.0990322453747123
mp-1113044,Cs2KLaCl6,-2.5174568649973796
mp-1112760,Cs2KLuCl6,-2.51241560099738
mp-628216,Cs2KMn(CN)6,-0.26884977701211105
mp-619127,Cs2KMn3F12,-2.9774693470874327
mp-560861,Cs2KMnF6,-3.00385049485138
mp-1112871,Cs2KMoBr6,-1.3063296420413792
mp-1111876,Cs2KMoCl6,-1.92308167899738
mp-557133,Cs2KMoF6,-3.03885485175538
mp-1113040,Cs2KMoI6,-0.9685035370413791
mp-989580,Cs2KNF6,-1.8914514609933792
mp-1095948,Cs2KNa,0.5260760811465516
mp-1112758,Cs2KNdBr6,-1.8625188577913792
mp-1112753,Cs2KNdCl6,-2.4858598667473792
mp-1113039,Cs2KNdI6,-1.4897138147913793
mp-557958,Cs2KNiF6,-2.56455343775538
mp-989585,Cs2KPbF6,-2.796585748755379
mp-1113037,Cs2KPdF6,-2.533820794755379
mp-1112754,Cs2KPrBr6,-1.8589313060413792
mp-1112721,Cs2KPrCl6,-2.4797660629973803
mp-1111021,Cs2KPrF6,-3.537190054755379
mp-1113035,Cs2KPrI6,-1.4885613400413789
mp-1183766,Cs2KRb,0.04731772231034481
mp-561561,Cs2KRhF6,-2.66367967875538
mp-1112583,Cs2KRuF6,-2.643763179255379
mp-1112853,Cs2KSbBr6,-1.3509836055413789
mp-1111873,Cs2KSbCl6,-1.925960854497379
mp-1111020,Cs2KSbF6,-2.917015570255379
mp-1112709,Cs2KSbI6,-1.0459091965413791
mp-1113047,Cs2KScBr6,-1.805447645041379
mp-571124,Cs2KScCl6,-2.44589050299738
mp-1113131,Cs2KScF6,-3.5984538967553794
mp-1112710,Cs2KScI6,-1.4191492330413786
mp-1229170,Cs2KSiF7,-3.336817477613073
mp-1079871,Cs2KSmCl6,-2.49518107724738
mp-1112695,Cs2KTaBr6,-1.3373156950413794
mp-1112693,Cs2KTaCl6,-1.9671605799973797
mp-1110984,Cs2KTaF6,-2.9930905217553785
mp-1113031,Cs2KTaI6,-0.9833200300413794
mp-580631,Cs2KTbCl6,-2.5087537073307127
mp-6178,Cs2KTiF6,-3.3313169334220465
mp-1226274,Cs2KTiO2F3,-3.040625506461162
mp-1113030,Cs2KTlBr6,-1.2864141805413791
mp-1113029,Cs2KTlCl6,-1.8508590204973792
mp-989526,Cs2KTlF6,-2.748284482255379
mp-1112692,Cs2KTlI6,-0.9866775845413792
mp-1112689,Cs2KTmCl6,-2.5137061009973802
mp-862811,Cs2KU2(Si2O7)2,-3.2530058659962515
mp-558895,Cs2KVF6,-3.18808126675538
mp-1112842,Cs2KYBr6,-1.874150805041379
mp-1112690,Cs2KYCl6,-2.50777352199738
mp-6059,Cs2KYF6,-3.626249539755379
mp-1112687,Cs2KYI6,-1.4912527500413797
mp-1206442,Cs2KYbCl6,-2.20049481699738
mp-40143,Cs2KZrOF5,-3.40081057526138
mp-1213737,Cs2La10Os2I17,-1.3377691942714125
mp-1213735,Cs2La10Ru2I17,-1.3407727933036702
mp-1113585,Cs2LaAgCl6,-2.221878325197379
mp-1113410,Cs2LaAuCl6,-2.0846055801973797
mp-1213736,Cs2LaBr5,-1.959553969051724
mp-1213724,Cs2LaCl5,-2.6063810579642244
mp-1113523,Cs2LaCuCl6,-2.1757831021973795
mp-1202786,Cs2LaN5O17,-1.2714421674225524
mp-1213716,Cs2LaNb2O7,-2.9873481459303166
mp-572512,Cs2LaTa6(Br5O)3,-1.588649072635695
mp-8711,Cs2Li14Tb3O14,-2.3434484851489032
mp-1019606,Cs2Li2B2P4O15,-2.7732915887227416
mp-8313,Cs2Li2GeO4,-2.1168785591570884
mp-504849,Cs2Li2SiO4,-2.4937635052681992
mp-8294,Cs2Li2TiO4,-2.541331855453384
mp-966802,Cs2Li3(BO2)5,-2.704865334662357
mp-1196318,Cs2Li3B3P6(PbO12)2,-2.7013763773817727
mp-571409,Cs2Li3Br5,-1.6491153532413794
mp-560088,Cs2Li3F5,-2.96391236333638
mp-555140,Cs2Li3GaO4,-2.0152568502413786
mp-608311,Cs2Li3I5,-1.349498060241379
mp-1019607,Cs2Li5(BO2)7,-2.7365623521993028
mp-13634,Cs2LiAl3F12,-3.683446152594098
mp-1206808,Cs2LiAlF6,-3.456730535955379
mp-14364,Cs2LiAsO4,-2.113354156551724
mp-1113026,Cs2LiAuCl6,-1.5598926111973792
mp-1112579,Cs2LiAuF6,-2.3485216929553787
mp-1111865,Cs2LiBiBr6,-1.3701518547413791
mp-1111851,Cs2LiBiCl6,-1.9538091216973799
mp-1110976,Cs2LiBiF6,-2.9631559954553794
mp-1112838,Cs2LiBiI6,-1.0519345597413792
mp-1095674,Cs2LiBr3,-1.7035010129022987
mp-1111848,Cs2LiCeBr6,-1.8109463142413795
mp-1113020,Cs2LiCeCl6,-2.439059968197379
mp-1110975,Cs2LiCeF6,-3.5435575999553786
mp-1112680,Cs2LiCeI6,-1.429867319241379
mp-571390,Cs2LiCl3,-2.186053067865632
mp-6884,Cs2LiCo(CN)6,-0.3079931355746126
mp-570502,Cs2LiCr(CN)6,-0.27941612901211155
mp-1226357,Cs2LiCr3F12,-3.1369606814829885
mp-1206440,Cs2LiCrF6,-3.126822300955379
mp-1113018,Cs2LiDyCl6,-2.4806761221973788
mp-1111446,Cs2LiErCl6,-2.4802880566973777
mp-1113199,Cs2LiEuCl6,-2.29375596969738
mp-553988,Cs2LiF3,-2.919920434330632
mp-21013,Cs2LiFe(CN)6,-0.2679621505746121
mp-6654,Cs2LiGaF6,-3.098355992955379
mp-1112624,Cs2LiGdCl6,-2.47240526719738
mp-989405,Cs2LiInBr6,-1.3892021655747129
mp-571527,Cs2LiInCl6,-2.0035067045307127
mp-1113016,Cs2LiInF6,-3.0239847432887133
mp-574653,Cs2LiIr(CN)6,-0.3754302174496118
mp-1112681,Cs2LiLaCl6,-2.49500140919738
mp-570379,Cs2LiLuCl6,-2.47886634019738
mp-6854,Cs2LiMn(CN)6,-0.26389537182461265
mp-18722,Cs2LiMnO4,-1.891182106671724
mp-1111847,Cs2LiMoBr6,-1.2537381522413795
mp-1110989,Cs2LiMoCl6,-1.87490271019738
mp-1112836,Cs2LiMoI6,-0.9097807942413793
mp-989536,Cs2LiNF6,-1.8242142991933792
mp-1112580,Cs2LiNbF6,-3.0129586649553786
mp-573030,Cs2LiNbS4,-1.5783744323329745
mp-1194993,Cs2LiNd(BO3)2,-2.857835951728927
mp-1111845,Cs2LiNdBr6,-1.831466940991379
mp-1111841,Cs2LiNdCl6,-2.4612057749473792
mp-1110973,Cs2LiNdF6,-3.544646982705379
mp-1112834,Cs2LiNdI6,-1.4504758489913794
mp-1112572,Cs2LiPdF6,-2.4830949749553786
mp-1111839,Cs2LiPrBr6,-1.8285258582413788
mp-1111836,Cs2LiPrCl6,-2.4559117311973795
mp-1110972,Cs2LiPrF6,-3.5512819159553795
mp-1113008,Cs2LiPrI6,-1.4499752162413793
mp-1111835,Cs2LiSbBr6,-1.3163732777413792
mp-1111439,Cs2LiSbCl6,-1.89720632869738
mp-1110971,Cs2LiSbF6,-2.91765852345538
mp-1112673,Cs2LiSbI6,-1.0050659357413791
mp-1189625,Cs2LiScCl6,-2.4191668331973792
mp-1112671,Cs2LiSmCl6,-2.46892965344738
mp-1111834,Cs2LiTaBr6,-1.2908711422413794
mp-1110988,Cs2LiTaCl6,-1.92500602319738
mp-1113000,Cs2LiTaI6,-0.9299607652413794
mp-1112669,Cs2LiTbCl6,-2.4799275315307128
mp-1112670,Cs2LiTlBr6,-1.248006174741379
mp-1112999,Cs2LiTlCl6,-1.8159481846973795
mp-989562,Cs2LiTlF6,-2.7382787024553794
mp-1112998,Cs2LiTmCl6,-2.481637521197379
mp-1226312,Cs2LiV3F12,-3.2395466259274333
mp-541190,Cs2LiVO4,-2.379199980926724
mp-510338,Cs2LiVS4,-1.5423746192079748
mp-1111833,Cs2LiYBr6,-1.8384386752413797
mp-567652,Cs2LiYCl6,-2.47808012919738
mp-1110969,Cs2LiYF6,-3.58927312995538
mp-1112663,Cs2LiYI6,-1.4480295142413793
mp-569387,Cs2Lu7CCl18,-2.4803469171372785
mp-1113542,Cs2LuAgCl6,-2.20554151719738
mp-1200277,Cs2Mg(SeO7)2,-0.7047811774790145
mp-1213820,Cs2Mg2(MoO4)3,-2.4242031976270417
mp-1195571,Cs2Mg2(WO4)3,-2.434088950653358
mp-568909,Cs2MgCl4,-2.2904482879219707
mp-7331,Cs2MgFe(CN)6,-0.4656354549496111
mp-542417,Cs2MgH12(SO7)2,-1.845349925854156
mp-779875,Cs2MgH12(SeO7)2,-1.5992795863077842
mp-644236,Cs2MgH4,-0.2972111663419703
mp-733936,Cs2MgH8(CO5)2,-1.8222989921249482
mp-1178409,Cs2MgO2,-1.880928936232758
mp-866620,Cs2MgP4(HO2)8,-2.2714147141917818
mp-1019610,Cs2MgSi5O12,-3.15668152012069
mp-1213730,Cs2MgZr(PO4)3,-2.9206089703338085
mp-1080610,Cs2Mn(Cl2O)2,-1.4628093309904209
mp-652901,Cs2Mn(PO3)4,-2.6681213481286963
mp-863753,Cs2Mn(PSe3)2,-0.6050820093874553
mp-1192359,Cs2Mn(TeS3)2,-0.8545657156171635
mp-1213801,Cs2Mn2(MoO4)3,-2.209228509307041
mp-1213854,Cs2Mn2Be3F12,-3.3268486328217786
mp-1214390,Cs2Mn2Cr3O12,-1.9923539533859893
mp-2884,Cs2Mn3S4,-1.095111534295978
mp-3704,Cs2Mn3Se4,-0.7326489451987549
mp-5927,Cs2Mn3Te4,-0.4999031669348655
mp-556529,Cs2MnBi2S5,-1.0800770425226305
mp-600186,Cs2MnBr4,-1.4306884732019702
mp-1025252,Cs2MnCl4,-1.960653485064828
mp-1205772,Cs2MnCl6,-1.8454349413304207
mp-1206528,Cs2MnF4,-2.9887761568762565
mp-555223,Cs2MnF5,-2.9958169005404733
mp-557912,Cs2MnF6,-2.9240936456126434
mp-640345,Cs2MnFe(CN)6,-0.27890714182461185
mp-1197828,Cs2MnH12(SO7)2,-1.7700189507238322
mp-1214073,Cs2MnH12(SeO7)2,-1.5237160752097192
mp-1226311,Cs2MnNiF6,-2.7585769010513777