task_id,composition,formation_energy_per_atom
mp-38683,Co2NiO4,-1.2306799764285716
mp-761554,Co2NiO6,-0.9284232269444443
mp-22658,Co2NiS4,-0.8349429037500004
mp-1025190,Co2NiSe4,-0.2757115549107141
mp-1178456,Co2O3F,-1.3666253358233331
mp-782656,Co2OF3,-2.027719473303334
mp-22204,Co2P,-0.5210956757142853
mp-782822,Co2P2H12O13,-1.7248928431543349
mp-541410,Co2P2H4O9,-1.9714065250009247
mp-1213809,Co2P2NO8,-1.5885865651281306
mp-559697,Co2P2O7,-2.2805991120941544
mp-1226671,Co2P3H11N2O9,-1.4420936582317982
mp-540204,Co2P3O10,-2.2894428255952373
mp-31620,Co2P5O16,-2.2466883174223606
mp-622183,Co2PClO4,-2.000149244425357
mp-25736,Co2PH2CO7,-1.827476011490989
mp-541452,Co2PHO5,-1.9758368974458724
mp-1213796,Co2PO4F,-2.232005259166608
mp-1105140,Co2PO5,-1.948820694174107
mp-1226453,Co2PS3,-0.7627116090550601
mp-1226439,Co2Pd,0.07863894333333359
mp-1226558,Co2Re5B4,-0.2230697031060616
mp-675644,Co2RhS4,-0.7970543330357154
mp-34586,Co2RuO4,-1.360846741428572
mp-1183728,Co2S3,-0.7931364624375007
mp-1213900,Co2S3(NO6)2,-1.037613747076185
mp-1192102,Co2Sb2O7,-1.6163731053409085
mp-859782,Co2SbO6,-1.3977357030555555
mp-675568,Co2SbTe,-0.10754947124999956
mp-19905,Co2Si,-0.4520556541666661
mp-24884,Co2Si(P2O7)2,-2.5428461007653054
mp-1105498,Co2Si3,-0.33117680550000017
mp-1226449,Co2SiGe,-0.38696475625000026
mp-25474,Co2SiO4,-2.1717929196428565
mp-571365,Co2Sn,0.1594152116666668
mp-653922,Co2SnC8(ClO4)2,-0.9299347299533344
mp-1199318,Co2SnC8SeO8,-0.8089314168046868
mp-36028,Co2SnO4,-1.684905405
mp-36069,Co2TcO4,-1.5291227278571426
mp-687088,Co2TeBr2O3,-1.1482292732812498
mp-561643,Co2TeCl2O3,-1.3789510656587505
mp-1195741,Co2TeSO8,-1.5350335509635418
mp-640163,Co2W4C,-0.0650480233928578
mp-636571,Co3(AsO4)2,-1.5949649713461538
mp-1047608,Co3(AsO4)4,-1.2366027734782603
mp-24876,Co3(BO3)2,-2.036218737348485
mp-764877,Co3(O2F)2,-1.4695146580422218
mp-763923,Co3(OF2)2,-1.9059558296955559
mp-540500,Co3(P2O7)2,-2.2303899819557818
mp-31597,Co3(P3O10)2,-2.2318585357881773
mp-19264,Co3(PO4)2,-2.189990692252747
mp-31554,Co3(PO4)4,-1.9729826675465845
mp-1193155,Co3(PO5)2,-1.8545226844523808
mp-1213793,Co3(PO8)2,-0.9895468202040818
mp-1213771,Co3(ReB)4,-0.2383758733333317
mp-1201339,Co3(SO6)2,-1.4044480187132358
mp-775276,Co3(SeO3)4,-1.23863878944079
mp-19807,Co3(SnS)2,-0.5346144583035704
mp-1202680,Co3(TeO4)2,-1.25929815326923
mp-1199098,Co3(W5C2)2,0.27281227470588393
mp-1203651,Co3Ag(AsO4)3,-1.4252251042105264
mp-542160,Co3Ag2(P2O7)2,-2.0991277722204966
mp-1226919,Co3Ag2P3HO12,-1.956572126907075
mp-25684,Co3AgP3(HO6)2,-2.031761001365169
mp-1213858,Co3As2(HO)16,-1.431409881024865
mp-20373,Co3B,-0.17845719979166666
mp-654358,Co3B7BrO13,-2.4298714449131937
mp-25674,Co3B7ClO13,-2.4736306125490284
mp-25675,Co3B7IO13,-2.36924759720486
mp-1197938,Co3B7O13F,-2.5343839105877763
mp-1182673,Co3BO5,-1.7579002406018511
mp-1191869,Co3BPO7,-2.1032971818799617
mp-985280,Co3Bi,0.4302215687500004
mp-617237,Co3Bi(CO)9,-0.7804662877272726
mp-774284,Co3BiO8,-1.1754687914583333
mp-20925,Co3C,0.13371247468750005
mp-623047,Co3C10ClO9,-0.7179468540004351
mp-647768,Co3C10O9,-0.6933859536553034
mp-559479,Co3C2(SeO5)2,-1.4212328163051462
mp-744440,Co3C7S2O7,-0.7712943202960533
mp-704489,Co3C9SO9,-0.8017267946164772
mp-745113,Co3C9SeO9,-0.7660975719815339
mp-1183689,Co3Cl,0.5839502691850003
mp-1183752,Co3Cu,0.1236753300000002
mp-775177,Co3Cu(PO4)4,-2.01701822577381
mp-1226601,Co3Cu3(TeO6)2,-1.2832215497499997
mp-761933,Co3Cu3(TeO8)2,-1.0926303775000008
mp-645902,Co3Ge(CO)10,-0.7887832126041658
mp-1226445,Co3Ge2,-0.10579033600000046
mp-541296,Co3H2Se3O10,-1.3561032616956248
mp-1183756,Co3I,0.6538651400000006
mp-1226447,Co3Ir,0.05629784249999936
mp-1139,Co3Mo,-0.04433302500000025
mp-1194380,Co3Mo3C,-0.02071771267857209
mp-22166,Co3Mo3N,-0.1892460146257134
mp-1205986,Co3N,-0.018608288094999814
mp-1183837,Co3Ni,-0.021860927499999683
mp-775307,Co3Ni(PO4)4,-2.0299449970238093
mp-1178437,Co3Ni2Te3O16,-1.2122199470833337
mp-851314,Co3Ni3(TeO8)2,-1.0923450912499997
mp-1226465,Co3Ni3S8,-0.7729278444642864
mp-1226652,Co3Ni9P4,-0.3819694205357145
mp-765866,Co3NiO8,-0.9417029625000004
mp-1226458,Co3NiSb12,-0.17062077937499964
mp-18748,Co3O4,-1.4171269899999988
mp-780770,Co3O5F,-1.272893904715556
mp-780745,Co3OF5,-2.1471102858
mp-1183718,Co3Os,0.12471352875000008
mp-1213762,Co3P,-0.34049723303571433
mp-1204587,Co3P2(H2O3)4,-1.780054568229828
mp-541288,Co3P2(H2O5)2,-1.9303849355929328
mp-1202701,Co3P2(HO)16,-1.6541774716812354
mp-604558,Co3P2H2O9,-2.0340211211109827
mp-1202222,Co3P2O9,-1.99174201557398
mp-31610,Co3P3O11,-2.198247332657564
mp-1200021,Co3P4H8N2(O3F)4,-1.7865330932439825
mp-850473,Co3P4O15,-2.0765291523782468
mp-572918,Co3P4PbO14,-2.334855945503247
mp-775453,Co3P6WO24,-2.1380763774369758
mp-1226460,Co3PW2,-0.2697227953571435
mp-865193,Co3Pt,-0.09575995750000033
mp-1226569,Co3Re25B12,-0.23522623818750216
mp-1226435,Co3ReB4,-0.3010879605208334
mp-1226422,Co3Rh,0.056106825000000526
mp-1183807,Co3Ru,0.12088808749999913
mp-1183733,Co3S,0.06930586898437419
mp-943,Co3S4,-0.8077886537500001
mp-768012,Co3Sb(PO4)4,-2.177269754732144
mp-1105290,Co3Sb4(OF)6,-2.0473098491915787
mp-761540,Co3SbO8,-1.3443213008333323
mp-1183684,Co3Se,0.2639901703515628
mp-1105151,Co3Se4(ClO5)2,-1.278148571231315
mp-1079393,Co3Si,-0.2619754574999993
mp-1226179,Co3SiGe2,-0.3269763575000001
mp-1226069,Co3SiMo2,-0.2950641766666659
mp-1183774,Co3Sn,0.0978376812500006
mp-775131,Co3Sn(PO4)4,-2.2195001109821444
mp-20679,Co3SnC,0.01825030724999976
mp-705298,Co3SnC12BrO12,-0.8482185708620679
mp-1202020,Co3SnC12ClO12,-0.876048758043447
mp-772446,Co3SnO8,-1.3211625425000004
mp-1183699,Co3Te,0.224954575
mp-1196606,Co3Te(MoO7)6,-0.7531704297596163
mp-1190932,Co3Te2(PO7)2,-1.7260311043707477
mp-645717,Co3TeO6,-1.4663959092500003
mp-868360,Co3TeO8,-1.286421365
mp-1192636,Co3W3C,-0.008249776249998928
mp-541595,Co3W3N,-0.14080712533999978
mp-1226205,Co3W9C4,0.2600038896874999
mp-765823,Co3WO8,-1.413625283750001
mp-1043067,Co4(CuO4)3,-0.9890130571052635
mp-1213876,Co4(MoO4)3,-1.7061099355263154
mp-778880,Co4(P2O7)3,-2.21488867577765
mp-1226103,Co4B,-0.09997733399999996
mp-19343,Co4B6O13,-2.3765805007065213
mp-1226198,Co4Cu3(NiSe6)2,-0.2899668694345237
mp-1226044,Co4CuNiS8,-0.8054400437500006
mp-1226010,Co4Ge,0.13815524700000026
mp-652229,Co4Ge(CO)13,-0.7842923203225799
mp-1226072,Co4H,-0.02161483572400016
mp-1226415,Co4Mo4O19,-1.5301749423611104
mp-1206425,Co4N,0.01098439352400078
mp-773307,Co4NiO8,-1.1050250269230752
mp-1106327,Co4NiSb12,-0.033456942941176536
mp-764209,Co4OF11,-2.0244646537087503
mp-1226016,Co4Os,0.14290951900000126
mp-653887,Co4Pb(CO)16,-0.8310547399999993
mp-1226024,Co4Ru,0.12859218099999908
mp-1226060,Co4SbO8,-1.3967645042307704
mp-1195181,Co4Se3Cl2O9,-1.3298171043639588
mp-651279,Co4Si(CO)14,-0.8083985622727279
mp-653460,Co4Sn(CO)16,-0.8447479794594599
mp-15868,Co4SnSb12,-0.11800214617647115
mp-780537,Co4TeO8,-1.3680541707692315
mp-690111,Co5(Bi2O5)4,-1.3777160416666665
mp-704226,Co5(P2O7)4,-2.1703289827351915
mp-1203728,Co5(PO6)2,-1.76269471706767
mp-16316,Co5As2,-0.09388091666666636
mp-1194572,Co5B16,-0.1591627705555552
mp-771662,Co5BiO12,-1.1041412794444452
mp-761404,Co5CuO8,-1.3105151500000003
mp-1226056,Co5CuS8,-0.7910549173214291
mp-773511,Co5NiO12,-1.0261268575000009
mp-1226019,Co5NiS8,-0.8227333594642862
mp-1046082,Co5O7,-1.109200531979166
mp-761471,Co5O8,-1.2366859500000005
mp-743741,Co5P4(HO2)10,-1.904039806660806
mp-1226477,Co5Sb15I,-0.13119232321428495
mp-761557,Co5SbO12,-1.2482235744444443
mp-33332,Co5SbO8,-1.5227340389285706
mp-645682,Co5Se4(BrO6)2,-1.2485176569293492
mp-645708,Co5Se4(ClO6)2,-1.3303868202563045
mp-1226176,Co5Sn(BO5)2,-1.869213956157408
mp-853132,Co5SnO12,-1.1645585011111104
mp-771479,Co5Te3O16,-1.3080718274999998
mp-698579,Co5Te4(BrO6)2,-1.3604247004347825
mp-687152,Co5Te4(ClO6)2,-1.4405122233269567
mp-608243,Co5Te4Cl4O11,-1.428275808199583
mp-1226090,Co5Te6,-0.11297455727272812
mp-622901,Co6C13(SO6)2,-0.657528134299243
mp-706566,Co6C13(SeO6)2,-0.6147261568465908
mp-650858,Co6Ge2(CO)19,-0.7797406550000008
mp-1193869,Co6Mo6C,-0.040673917980768685
mp-763905,Co6O5F7,-1.7897704888655552
mp-850078,Co6O7F5,-1.5721321494277791
mp-762910,Co6OF11,-2.26222901663
mp-705347,Co6P7O24,-2.2798945579729732
mp-705156,Co6Te3(ClO6)2,-1.4602482725660877
mp-705120,Co6Te5O16,-1.461947206388888
mp-1226155,Co6W20C7,-0.05307394155302994
mp-24892,Co7(AsO6)2,-1.518659156904762
mp-690550,Co7(RuO6)2,-1.3649492628571434
mp-705595,Co7(SbO6)2,-1.5735682928571424
mp-1226214,Co7CuAs4(HO5)4,-1.5277086141522225
mp-1226096,Co7Ge4,-0.10197010181818073
mp-1226111,Co7NiP4,-0.5338561082142851
mp-771737,Co7O12,-1.0984701176315796
mp-505026,Co7P6(HO6)4,-2.1276054484716367
mp-639164,Co7Te4(BrO2)6,-1.1974039217241377
mp-691140,Co8(BiO4)5,-1.2422682460606058
mp-699375,Co8As3O16,-1.4972091357407409
mp-651461,Co8C24(SO7)3,-0.6726075968470988
mp-1228013,Co8Cu7(MoO4)12,-1.7038674699999994
mp-699598,Co8Te(AsO8)2,-1.5082535483333317
mp-767737,Co9Cu3O16,-1.241240503928571
mvc-2263,Co9O13,-1.087526728011364
mp-698596,Co9Ru3O16,-1.3728647099999998
mp-1513,Co9S8,-0.7921593048529421
mp-22745,Co9Se8,-0.2732426546323527
mp-1203045,Co9Te5(PbO5)6,-1.5209886636500003
mp-647969,CoAg(CO)4,-0.749173729750001
mp-1181889,CoAg(N3O4)2,-0.15428881901749936
mp-645371,CoAg(NO3)3,-0.951575247563572
mp-1213893,CoAg(PO3)3,-2.2714505441198978
mp-1226122,CoAg2Sn3S8,-0.7044974941071435
mp-6573,CoAg3(CN)6,0.2324579370762505
mp-1206910,CoAgF3,-1.6836649057139998
mp-19178,CoAgO2,-1.045448129375
mp-769661,CoAgO3,-0.7844983397500009
mp-541616,CoAgPO4,-1.896421991377552
mp-583,CoAs,-0.2958388862500003
mp-2715,CoAs2,-0.32013639499999985
mp-1198499,CoAs2S4(O2F3)4,-2.155296523723334
mp-1203902,CoAs2S6(NF3)6,-1.5732547404568185
mp-1204225,CoAs3OF18,-2.169927472833478
mp-554833,CoAs4F18,-2.4604395339747827
mp-1201698,CoAsO5,-1.0530149442857135
mp-1226053,CoAsPd,-0.02352506333333319
mp-1193650,CoAu(BrN)6,0.2460320211228577
mp-570037,CoAu2(CN)4,0.2473992520133336
mp-1206590,CoAu3,0.31700328749999995
mp-1226077,CoAu4,0.20320826400000053
mp-997158,CoAuO2,-0.991108556875
mp-1183686,CoAuO3,-0.2796127527500005
mp-20857,CoB,-0.40033368458333296
mp-1195847,CoB10H19C11,-0.12219062638284547
mp-1202054,CoB10H23C13,-0.1440793926314178
mp-1204268,CoB10H31C18O,-0.17191177979732195
mp-735475,CoB12H28(NO15)2,-1.9204852064879447
mp-1190897,CoB4O7,-2.5729961942013895
mp-646356,CoBC8(OF2)5,-1.4911899097926664
mp-569520,CoBH18Br2(N3F2)2,-1.0627043721364575
mp-1201834,CoBH18N6(ClF2)2,-1.1168128228870833
mp-21347,CoBMo,-0.4302596730555545
mp-769836,CoBO3,-2.016811041083334
mp-1238930,CoBP(HO3)2,-2.1789976488075324
mp-1183871,CoBP2HPbO9,-2.352362835054825
mp-22759,CoBW,-0.4313831205555563
mp-1203525,CoBi(CO)3,-0.7197647664062501
mp-1042672,CoBi2O7,-1.013874553374999
mp-1195268,CoBi2SO7,-1.8322675873011365
mp-1190466,CoBi6(SO8)2,-1.840625845925
mp-1213921,CoBi6P2(O7F)2,-2.0594121425666287
mp-1105091,CoBiAsO5,-1.6808410820312494
mp-557739,CoBiO3,-1.4807450037500005
mp-769930,CoBiO4,-1.2559316683333328
mp-25659,CoBiPO5,-2.1567903326116067
mp-1059765,CoBr,0.6946968050000004
mp-30033,CoBr2,-0.289672553333333
mp-1190668,CoBr2(N3O)2,1.11918774802
mp-1182488,CoBr2N6O,0.8522226074469998
mp-1196610,CoBr3N5,0.7005717606222217
mp-1205182,CoBrN5O4,0.5646372245999991
mp-1181939,CoBrO,-0.7275434329166662
mp-1202003,CoC12N8(ClO5)2,0.3165275147557579
mp-1203919,CoC4(NCl2)2,0.2114030415636363
mp-1204050,CoC8(NCl2)2,1.141722623980001
mp-1195784,CoC8(SF3)4,-1.2795929354211997
mp-1202336,CoCBrN4O3,-0.10703317270200044
mp-1197836,CoCIN5O4,0.032583232029166936
mp-567767,CoCN2,0.17263436787249994
mp-24854,CoCO3,-1.7007519755000005
mp-696114,CoCl2,-0.9309262888400004
mp-1206633,CoCl6,-0.2125783927942856
mp-761614,CoCu(PO4)2,-1.9919078049404768
mp-620325,CoCu2(BO3)2,-1.8395341196212118
mp-6498,CoCu2GeS4,-0.6310171726562501
mp-1226052,CoCu2GeSe4,-0.20514778992187568
mp-504858,CoCu2O3,-1.0091878631250009
mp-11769,CoCu2SiS4,-0.7199509132812505
mp-1226085,CoCu2Sn3S8,-0.737061116250001
mp-11770,CoCu2SnS4,-0.6380576114062508
mp-11771,CoCu2SnSe4,-0.2281648024218743
mp-1226159,CoCu2TeO6,-1.2265907169999992
mp-775137,CoCu3(PO4)4,-1.9349229228571427
mp-1181785,CoCu3HgSe4,-0.0905957738194445
mp-1195492,CoCuCO5,-1.2336682581249994
mp-23857,CoCuH18N6Cl5,-0.7731142113948385
mp-1226116,CoCuNiS4,-0.7447871487500005
mp-504711,CoCuO2,-1.1651366706249997
mp-505200,CoCuP2O7,-2.140530098457792
mp-1226070,CoCuS4,-0.6644551193749996
mp-1214108,CoCuSe2(ClO5)2,-0.4985391514817188
mp-556520,CoF2,-2.3897082541266657
mp-561038,CoF3,-2.1705788333925
mvc-13941,CoF4,-1.7685131729519994
mp-1181805,CoGe(OF)6,-0.8721161496171435
mp-30045,CoGe2,-0.15129649833333286
mp-1147778,CoGeAs2,0.029635745000000213
mp-1226367,CoGeMo,0.054873949999999866
mp-24885,CoGeO3,-1.828283321250001
mp-3715,CoGeTe,-0.22001344916666632
mp-1206874,CoH,-0.05119831430999966
mp-1182045,CoH10(SeO5)2,-1.0076232969951078
mp-743970,CoH10C4(N2O3)2,-0.9702124078787996
mp-542452,CoH12(BrO3)2,-1.2555642667114286
mp-744192,CoH12(BrO6)2,-1.0682477900348148
mp-643575,CoH12(BrO7)2,-1.000220930032414
mp-743756,CoH12(ClO3)2,-1.34828787226
mp-1197384,CoH12PdC4(NO3)4,-0.7566161453811756
mp-743637,CoH12SO10,-1.5108623525001033
mp-743913,CoH14C10(N4O)2,-0.291474156849143
mp-600527,CoH14C3NCl3O2,-0.7722843480870829
mp-744996,CoH14N5O9,-0.9484335596148274
mp-1199552,CoH14SeN5O7,-0.8636835741044199
mp-1226695,CoH15Br2(N3O)2,-0.6753601456184619
mp-1227607,CoH15N6(ClO)2,-0.7470952477923075
mp-744737,CoH15N7ClO5,-0.3325298349299999
mp-1204542,CoH15Pd(NCl)5,-0.7754494503703703
mp-744002,CoH16C3N8O7,-0.8399971861988571
mp-568314,CoH16C4(NCl2)2,-0.5751397066007402
mp-744418,CoH16C4(NO)7,-0.6077715516665714
mp-1199306,CoH16C4S4(N4Cl)2,-0.5369817519208571
mp-744774,CoH16RuN10ClO10,-0.8160265482687163
mp-735481,CoH17C(NO)8,-0.8083042979808568
mp-745061,CoH17S2N5ClO4,-0.8876862733274995
mp-1198748,CoH18Br2N6ClO3,-0.6604156352887104
mp-600278,CoH18C4N7O8,-0.5946597428110525
mp-744629,CoH18C4N8(ClO)4,-0.8685611901856414
mp-744689,CoH18C6SO10,-0.6371878710895145
mp-1204043,CoH18CN6ClO3,-0.8329769105899999
mp-1201414,CoH18N6(ClO)3,-0.7154783164667738
mp-1196395,CoH18S2Br(N3O2)2,-0.7283006753145305
mp-745100,CoH19S3N5O11,-1.1473842935030132
mp-1203827,CoH2(CO2)2,-1.2912467540451853
mp-734944,CoH2(SN)4,0.04027803620363748
mp-1200270,CoH20C4SO10,-1.0220964630730311
mp-1197411,CoH20PtC4(NO3)4,-1.1412869764742857
mp-542659,CoH20S2(NO7)2,-1.4065150977637175
mp-735513,CoH20S2N6ClO4,-0.8812488903842639
mp-603423,CoH21C2N6Cl2O5,-0.9126932189343238
mp-746670,CoH22C3(N3O4)2,-0.9741479680042502
mp-42392,CoH22N7(ClO2)4,-0.6242759773652383
mp-735625,CoH22S2N5O9,-0.5883109023952565
mp-1198847,CoH24C2S2(N3O7)2,-1.1806200248833674
mp-1195446,CoH24C6Br2(N2O3)2,-0.7060408258465112
mp-1204815,CoH2CO3,-1.2095474094866665
mp-1192030,CoH2Cl2O,-1.2897613950016662
mp-1196122,CoH2PbN3O8,-1.1080084917919997
mp-643547,CoH2SO5,-1.739986138061389
mp-541780,CoH2SeO4,-1.346882402291719
mp-25484,CoH2SeO5,-1.3225969163426383
mp-1183678,CoH3,0.14158378103500002
mp-570847,CoH3(CN)6,0.13470895545999986
mp-1182596,CoH32C8S4(NO5)2,-0.7860331153394732
mp-1214728,CoH3S2N5O6,0.6311436915655882
mp-25492,CoH4(CO3)2,-1.474687542652307
mp-1214998,CoH40C10Br2(N2O)10,-0.7900310352096379
mp-709540,CoH4C4(NCl2)2,0.5636578525146669
mp-1226354,CoH4C4(NO3)2,-0.6479470695141174
mp-541300,CoH4SeO5,-1.3137044890294314
mp-1190433,CoH5CN(ClO)2,-1.0860688352708323
mp-776636,CoH5SeClO5,-1.328922297688751
mp-548747,CoH6(CO3)2,-1.3257150509479998
mp-643913,CoH6(NCl)2,-0.7216922661818181
mp-744574,CoH6(SeO4)2,-1.3371114043474994
mp-743619,CoH6C2S2N2O3,-0.8097817641159368
mp-1195522,CoH7C3NO6,-1.1499149505446289
mp-25494,CoH8(BrO2)2,-1.2006299219306669
mp-1204386,CoH8(CO4)2,-1.4079138613926316
mp-772431,CoH8(CO5)2,-1.4238975806647614
mp-1238424,CoH8(ClO2)2,-1.1093406210320005
mp-25486,CoH8(IO5)2,-1.210063584593333
mp-1200994,CoH8C2N4(ClO2)2,-0.6332994889285715
mp-1226417,CoH8S2(NO2)4,-1.1157441507219563
mp-744576,CoH8SO8,-1.5487724510012508
mp-1181555,CoH8Se2(ClO4)2,-0.8704234984603572
mp-24037,CoH9(CN2)3,-0.32461504332158003
mp-745118,CoH9(NO)6,-0.7798949582663636
mp-1200667,CoH9C3N7O2,-0.4014627050222725
mp-743542,CoH9C4NO6,-1.0089960286885713
mp-600510,CoH9C6(S2O)3,-0.5135899348281998
mp-600494,CoHCO3,-1.1930075329644447
mp-1022803,CoHCO4,-1.5059785170052369
mp-31526,CoHO2,-1.3766981402800005
mp-744756,CoHRu(CO)6,-0.8375808484913335
mp-735485,CoHRu3(CO)13,-0.8965173443909688
mp-985285,CoHg3,0.4754284875000001
mp-540934,CoHgC4(SN)4,-0.0710108286264293
mp-12422,CoHgC4(SeN)4,0.20469149079321425
mp-1197380,CoHgH18Br4N6Cl,-0.6631866628290316
mp-1204961,CoHgN6Cl5,-0.15987868581384662
mp-1181743,CoHgS4,-0.20203472604166647
mp-617167,CoI(NO)2,-0.4029027745433318
mp-569610,CoI2,0.025231263333333
mp-1204403,CoI2(N3O)2,-0.14391997607090834
mp-1226007,CoIr,0.09435179000000016
mp-1226395,CoMo,-0.012373573846152052
mp-1183707,CoMo3,0.2274851000000009
mp-1226133,CoMo4N5,-0.31652672719000063
mp-1105747,CoMo4O15,-1.6056899639374995
mp-745098,CoMo8H36C8(NO16)2,-1.2002767204032192
mp-1204398,CoMoH24N6ClO7,-0.9970274380792497
mp-866972,CoMoH2SeO7,-1.5851648587153118
mp-1183772,CoMoO3,-1.1513250927499996
mp-19644,CoMoO4,-1.8552028641666665
mp-22262,CoMoP,-0.6111354198809522
mp-1194075,CoN12,1.219312877803078
mp-22762,CoN3,0.3555260407150005
mp-1204466,CoN3Cl5,0.8163906451733338
mp-1182276,CoN4Cl2O3,-0.10347682747900036
mp-1201305,CoN5Cl3,1.1177268767577777
mp-1201776,CoN5ClO4,0.5632864297581822
mp-1197703,CoN5O9,0.2672622627899993
mp-1191322,CoN6(ClO)2,-0.35802689620909045
mp-1214768,CoN7ClO5,0.20659392277357114
mp-1199756,CoN7O8,0.043006045364999856
mp-772570,CoNCl4O3,-0.7296247546300008
mp-1213745,CoNF3,-0.03716810218999953
mp-1226076,CoNi,0.011891890000000238
mp-1226061,CoNi(AsS)2,-0.5841704213541673
mp-549033,CoNi(PO3)4,-2.3734456390873007
mp-766719,CoNi(PO4)2,-1.9728697595238096
mp-1226098,CoNi(PS3)2,-0.6154123908660708
mp-1226074,CoNi(SbS)2,-0.5358219496874993
mp-1226305,CoNi2(PO4)2,-2.0482137149450548
mp-1183785,CoNi3,0.01173546749999943
mp-1226065,CoNi5S8,-0.7486006230357144
mp-1079542,CoNiAs,-0.16719078166666654
mp-1226009,CoNiAs2,-0.2671717600000001
mp-1226021,CoNiGe,-0.19236908500000047
mp-744562,CoNiH12C4(N2O3)2,-0.6938435209985718
mp-542386,CoNiH24(SO10)2,-1.4966154282292703
mp-1238777,CoNiO2,-0.9007707806249988
mp-1178424,CoNiO3,-1.0561305447500005
mp-1226037,CoNiP,-0.5689149884920618
mp-1229196,CoNiP4(H8O5)4,-1.3500289652484725
mp-1226004,CoNiPt2,-0.0047121700000003494
mp-1226064,CoNiS4,-0.7314353843750006
mp-1025009,CoNiSb,0.0394320316666672
mp-1226120,CoNiSb6,-0.15716133874999993
mp-1226013,CoNiSe2,-0.18959829929687447
mp-1226084,CoNiSe4,-0.25641454739583364
mp-20237,CoNiSn,-0.006068944999999104
mp-1226017,CoNiTe2,-0.12813393249999994
mp-1226048,CoNiTe4,-0.21766607666666601
mp-24864,CoO,-1.3300730981249993
mp-1116784,CoO2,-1.137762756666665
mp-1079523,CoO4,-0.1101917950000008
mp-1226000,CoOs,0.13230293750000044
mp-22270,CoP,-0.580257282321428
mp-1237503,CoP(H4O3)3,-0.9932570183405586
mp-25477,CoP2(H4O5)2,-1.8457639093212241
mp-1203644,CoP2(H8O5)2,-1.3244449169726105
mp-1196775,CoP2H10(NO4)2,-1.4427404245758997
mp-1182407,CoP2H15N5O8,-0.8364845553382488
mp-744527,CoP2H17N4O9,-1.2916570304271429
mp-743593,CoP2H18(NF2)6,-1.5088318509745058
mp-746679,CoP2H24C8S4NClO4,-0.6035205812901255
mp-540494,CoP2O7,-2.131370800803571
mp-541467,CoP2PbO7,-2.37594802163961
mp-761749,CoP2WO8,-2.313454878690475
mp-604979,CoP3H12NO7,-1.2372476041041065
mp-1196080,CoP3H15C3NO12,-1.326997161767388
mp-744226,CoP3H16N4O11,-1.436474342646244
mp-1203987,CoP3H33C11I,-0.279171735502828
mp-863286,CoP3NO9,-1.831187542504184
mp-743783,CoP4(H5O8)2,-1.9812450253152056
mp-1203442,CoP4F12,-2.540815800755966
mp-25495,CoP4H16(NO8)2,-1.7438530510577266
mp-1200623,CoP4O11,-2.45341863311384
mp-1182419,CoP6(N2O11)2,-1.2269324193902162
mp-774466,CoP6(WO8)3,-2.4246865380252096
mp-1182136,CoPH14N4O7,-0.6239267418923276
mp-762564,CoPH16NO10,-1.464886718446304
mp-775736,CoPH21N5O7,-1.0936507148946533
mp-745087,CoPH3O4,-1.6843766010280956
mp-1182617,CoPH3O5,-1.8851214862586183