task_id,composition,formation_energy_per_atom
mp-1214091,Ca2HBr2,-0.5223150167239999
mp-1214086,Ca2HCl2,-0.907980368028
mp-1214100,Ca2HI2,-0.321121006724
mp-24119,Ca2HN,-0.9226541521250002
mp-27221,Ca2Hf7O16,-3.9570628436000006
mp-752413,Ca2HfO4,-3.686743846428572
mp-1103139,Ca2Hg,-0.4016690583333332
mp-1096753,Ca2HgAu,0.7141767612500001
mp-1183503,Ca2HgBi,-0.6706941575000003
mp-1183454,Ca2HgGe,-0.5952359549999997
mp-866105,Ca2HgPb,-0.6017632012499998
mp-1097426,Ca2HgPd,0.8501199737500003
mp-1096103,Ca2HgPt,0.7628309237500004
mp-676867,Ca2HoF7,-4.135481697999667
mp-1227762,Ca2HoMn3O9,-2.7122718251086657
mp-1227572,Ca2HoMn4BiO12,-2.492556732191999
mp-1182422,Ca2I4O13,-1.3002712219078951
mp-28553,Ca2IN,-1.272029598095
mp-20669,Ca2In,-0.3696906502777777
mp-769778,Ca2In2O5,-2.5556056922685166
mp-630875,Ca2In4Au3,-0.5261612945370371
mp-1096268,Ca2InGa,1.3497496104166666
mp-1183598,Ca2InHg,-0.5086465020833333
mp-510086,Ca2InN,-0.7830231264283332
mp-1183460,Ca2InPb,-0.4912473345833335
mp-20792,Ca2InPd2,-0.724733340666667
mp-21885,Ca2InPt2,-0.8888998916666665
mp-540806,Ca2IrO4,-2.4276691380952378
mp-1227402,Ca2IrPtO6,-2.056284654250001
mvc-5822,Ca2IrWO6,-2.3927814072500007
mp-1214137,Ca2La2Cu3O8,-2.4387560176666665
mp-1227473,Ca2La2MgTi3O12,-3.6226162765000014
mp-1227406,Ca2La2Ti3CuO12,-3.3224461455000003
mp-1227548,Ca2La3Cu4AgO12,-2.2795523068181818
mp-1214227,Ca2La3Si3O13,-3.563292323869048
mvc-11916,Ca2La5Mn7NiO24,-2.6598280061979485
mp-1227578,Ca2La5Sb5O14,-2.362666580288462
mp-743953,Ca2La8Ti5Cr5O30,-3.4060637767166657
mp-1214119,Ca2LaBeO5,-3.1973064840277767
mp-676459,Ca2LaF7,-4.267738116833
mp-1227683,Ca2LaGa(FeO4)2,-2.7495419075000007
mp-1227699,Ca2LaGaCu2O7,-2.498525294134615
mp-1227756,Ca2LaGeS4Cl3,-2.171978030548182
mp-1214095,Ca2LaMn2O7,-2.8540329854724997
mp-1227659,Ca2LaMn3O9,-2.697984664941999
mp-1227467,Ca2LaNdMn4O12,-2.7754842030669997
mp-1106181,Ca2LaSbO6,-3.064843424250001
mp-1039467,Ca2Mg,-0.049150714999999984
mp-1193964,Ca2Mg(CO3)3,-2.6132697138333327
mp-1214382,Ca2Mg2B4O13,-2.4425445924007945
mp-1095343,Ca2Mg3Si,-0.14152944749999996
mp-1129406,Ca2Mg5(SiO3)8,-3.1863870316666683
mp-1196550,Ca2Mg5Si8(HO12)2,-3.183928594200976
mp-557662,Ca2Mg5Si8(O11F)2,-3.3716687803815395
mp-1227417,Ca2MgAg3,-0.299195005833333
mp-1093696,Ca2MgAl,1.5150772387500002
mp-677029,Ca2MgAl2(SiO4)3,-3.405518117000001
mp-1214260,Ca2MgAl2Si3O14,-2.928677684659091
mp-707983,Ca2MgB2H16(CO9)2,-1.9615108806403256
mp-1183457,Ca2MgCd,-0.20886057499999988
mp-1227885,Ca2MgFe(CO3)4,-2.4357777080000007
mp-1227399,Ca2MgFe(SiO3)4,-3.2140391315000003
mp-1097370,Ca2MgGa,1.3391478762499998
mp-1096403,Ca2MgHg,1.12578471125
mp-867350,Ca2MgIn,-0.30913437958333345
mp-23717,Ca2MgP2(H2O5)2,-2.669228973487668
mp-1096214,Ca2MgPb,1.26403180625
mp-1068035,Ca2MgPd2,-0.6630264910000004
mp-1068002,Ca2MgPt2,-0.8781775670000002
mp-1227487,Ca2MgReO6,-2.8875177895000017
mp-6094,Ca2MgSi2O7,-3.392858363229168
mp-861645,Ca2MgTl,-0.2852186575
mp-1202316,Ca2MgV10(H8O11)4,-1.9063527062453944
mp-19324,Ca2MgWO6,-3.003455175750002
mp-1097680,Ca2MgZn,1.348722455
mp-1182283,Ca2Mn(AsO5)2,-2.0563126838973336
mp-1103950,Ca2Mn(PO5)2,-2.5702569941830467
mvc-12258,Ca2Mn2(SiO4)3,-2.8323466285221053
mp-25008,Ca2Mn2O5,-2.589125138685555
mp-744672,Ca2Mn2Si4H6O17,-2.451838868383548
mp-1191515,Ca2Mn2Si4O17,-2.2317909639268
mp-18893,Ca2Mn3O8,-2.4233622529138463
mp-735626,Ca2Mn3P3H6O17,-2.170288612734792
mp-1214361,Ca2Mn3Si3H3O14,-2.6351342626496
mp-1214281,Ca2Mn3Si3O14,-2.6683771018354543
mp-1228000,Ca2Mn7Si10H12O35,-2.5376869014986356
mp-745107,Ca2MnAl2Si3HO13,-3.140424225492273
mp-1227903,Ca2MnAl2Si3O13,-3.137861633438572
mp-1200446,Ca2MnAl2Si4BO15,-3.1040501386550665
mp-1204491,Ca2MnAl2Si4BO16,-3.1697065112548706
mp-18907,Ca2MnAlO5,-3.0409842658011104
mp-25700,Ca2MnAs2(H2O5)2,-2.1449029980494743
mp-578993,Ca2MnFeO5,-2.589224308578889
mp-1227867,Ca2MnFeSi4(HO3)5,-2.6256857890289282
mp-630403,Ca2MnGaO5,-2.731158821078888
mp-39440,Ca2MnIrO6,-2.331494958846
mvc-14557,Ca2MnN2,-0.903617755952
mp-1029959,Ca2MnN3,-0.9955780328566656
mp-1047534,Ca2MnNb2O8,-3.053901623150768
mp-1227519,Ca2MnNbO6,-3.014847596845999
mvc-10906,Ca2MnNiO6,-1.9654431368460004
mp-1227324,Ca2MnO3,-2.8536487749516666
mp-19050,Ca2MnO4,-2.755690804422856
mp-25556,Ca2MnP2(H2O5)2,-2.550798239853985
mp-1106155,Ca2MnReO6,-2.666408264596
mp-1227575,Ca2MnRuO6,-2.3913168703460013
mp-1227483,Ca2MnSbO6,-2.615205844346
mp-1214268,Ca2MnSi2,1.815373695
mp-19108,Ca2MnWO6,-2.7867976213459995
mvc-3999,Ca2Mo2O5,-2.36503688902778
mp-1042855,Ca2Mo3O8,-2.5391561053846154
mp-1029689,Ca2MoN3,-1.0608636328566652
mvc-5110,Ca2MoO5,-2.6383531757812504
mvc-4994,Ca2MoWO6,-2.699524235750001
mp-2686,Ca2N,-0.8843570624600001
mp-22936,Ca2NCl,-1.8078044751599995
mp-33588,Ca2NF,-2.2480259221425003
mp-1042164,Ca2Nb2BiO8,-2.8495733596153836
mp-1047021,Ca2Nb2CoO8,-2.9121639246153848
mvc-12286,Ca2Nb2CoO9,-2.7458569290178576
mp-1047030,Ca2Nb2CrO8,-3.0232230311538464
mp-1043833,Ca2Nb2CuO8,-2.8349561857692303
mp-1047759,Ca2Nb2FeO8,-2.98933023576923
mp-1047029,Ca2Nb2MoO8,-2.911540102307692
mp-1047012,Ca2Nb2NiO8,-2.8479418792307696
mp-13979,Ca2Nb2O7,-3.313406876022728
mp-1043626,Ca2Nb2SbO8,-2.8549448688461543
mp-1042909,Ca2Nb2SnO8,-2.96556136
mp-1044156,Ca2Nb2WO8,-2.8193008973076914
mp-1214115,Ca2NbCrO6,-3.1229143057499997
mp-1214121,Ca2NbFeO6,-3.0037716482500003
mp-560645,Ca2NbInO6,-3.0097587065833338
mp-1029832,Ca2NbN3,-1.24891883244
mp-1227502,Ca2NbO6F,-2.380587060869
mp-1227616,Ca2Nd2MnNiO8,-2.8411473843542856
mp-40206,Ca2Nd2Nb3FeO14,-3.26596349965909
mp-1214181,Ca2Nd3Si3O13,-3.529500452083335
mp-675896,Ca2NdF7,-4.188372025916334
mp-1191589,Ca2Ni12As7,-0.470797840000001
mvc-3992,Ca2Ni2O5,-1.8372817312500005
mvc-15993,Ca2Ni3O8,-1.483459900384616
mp-510001,Ca2Ni7P4,-0.7456649756593412
mp-1045953,Ca2Ni9O13,-1.23568118171875
mp-1047142,Ca2NiIrO6,-2.0571647957500003
mvc-15358,Ca2NiN2,-0.7534754479519996
mp-510537,Ca2NiOsO6,-2.2164860277500003
mvc-4123,Ca2NiSbO6,-2.2536235467500005
mp-19114,Ca2NiWO6,-2.55502827625
mp-1120811,Ca2O3,-2.4355578962500006
mp-706426,Ca2P2H4O9,-2.573100022353865
mp-554174,Ca2P2H8O11,-2.254851854217205
mp-1200799,Ca2P2O11,-2.0357190922023807
mp-17922,Ca2P2O7,-3.2309834536850657
mp-1214153,Ca2P3Pb3ClO12,-2.7245426173661222
mp-1229244,Ca2P4H11NO18,-2.073435604813095
mp-758337,Ca2P6O17,-2.8741219787642867
mp-1227422,Ca2P7Ir12,-0.5908580871428571
mp-1093621,Ca2PAu,0.5254117857142857
mp-554081,Ca2PClO4,-3.271822099112857
mp-1093676,Ca2PH,0.43669422855928586
mp-23040,Ca2PI,-1.4129673342857143
mp-8977,Ca2PN3,-1.307363982797143
mp-30478,Ca2Pb,-0.5544476133333335
mp-1183607,Ca2PbAu,-0.6403029012499997
mp-21137,Ca2PbO4,-2.566412035
mp-863744,Ca2PdAu,-0.7421725987499999
mp-1183493,Ca2PdPt,-0.7929923262500003
mp-1097623,Ca2PdRh,1.29242170875
mp-25183,Ca2PdWO6,-2.227867871250001
mp-1228704,Ca2Pr19(CoI12)3,-1.2814336484166664
mp-1227517,Ca2Pr2MnNiO8,-2.839537020425713
mp-1183496,Ca2Pr2O5,-2.9763131279166664
mp-1227629,Ca2Pr4(Mo2O7)3,-2.8623565809469698
mp-1214104,Ca2PrBeO5,-3.17098503875
mp-1214167,Ca2PrGaCu2O7,-2.4708412983653845
mp-755624,Ca2PrO4,-3.1387469021428567
mp-8710,Ca2Pt3O8,-1.8146651326923082
mp-1227265,Ca2PtAu,-0.8614817712499998
mp-1063314,Ca2Rh,-0.26371275166666663
mp-554638,Ca2Ru2O7,-2.1797698444318185
mp-21466,Ca2RuO4,-2.5334800557142856
mp-1196095,Ca2S2O9,-2.414586613413462
mp-1214318,Ca2S3(NO6)2,-1.6088388070761843
mp-9925,Ca2Sb,-0.8841447850000002
mvc-3799,Ca2Sb2O5,-2.3487735045833342
mp-16280,Ca2Sb2O7,-2.611516321704546
mp-29284,Ca2Sb2S5,-1.4672523183680564
mvc-13947,Ca2Sb3O8,-2.249319312307692
mp-571215,Ca2Sb4Pd3,-0.7173801622222223
mp-861950,Ca2SbAu,-0.9166662825
mvc-4146,Ca2SbMoO6,-2.6107522587500007
mvc-5024,Ca2SbWO6,-2.53724795825
mp-1214125,Ca2ScNbO6,-3.5235975347499986
mp-1105395,Ca2ScOsO6,-2.9330268537500004
mp-1227341,Ca2ScP3Pt7,-1.042884450879121
mp-1214154,Ca2ScReO6,-2.99059862
mp-1214081,Ca2ScTaO6,-3.64615291925
mp-28535,Ca2Se3O8,-2.086194376598558
mp-1227649,Ca2Se4O11,-1.7334176722426469
mp-29570,Ca2Si3Ag,-0.4594417650000005
mp-1227470,Ca2Si3Ni,-0.4157352908333341
mp-1204013,Ca2Si3O11,-2.4288917000781245
mp-1214269,Ca2Si3Pb3O11,-2.8429351055482446
mp-504590,Ca2Si3PbO9,-3.178478597416667
mp-28922,Ca2Si5N8,-1.419869852936
mp-1214093,Ca2Si5Pt3,-0.8268231025000006
mp-752851,Ca2SiB2O7,-3.263004762256944
mp-850516,Ca2SiB5H5O14,-2.651130870979012
mp-867937,Ca2SiB5O14,-2.599669281287879
mp-556364,Ca2SiCl2O3,-3.1960126572212504
mp-541431,Ca2SiH2O5,-2.859487763349
mp-30312,Ca2SiIr2,-0.7285370299999997
mp-4481,Ca2SiO4,-3.4926626085714285
mp-1201156,Ca2SiO4F,-3.3106180326487498
mp-1182405,Ca2SiO5,-2.8497280845312503
mp-1205089,Ca2SiO6,-2.3604727888888895
mp-1194183,Ca2SiSe4,-1.3435833224107143
mp-1227446,Ca2SmYMn4O12,-2.7822714308170005
mvc-3803,Ca2Sn2O5,-2.4574540001388883
mvc-15350,Ca2Sn3O8,-2.5711506830769224
mp-1100346,Ca2Sn3S8,-1.2932088186538466
mp-21774,Ca2Sn5Pt3,-0.7315586719999999
mp-1045693,Ca2Sn9O13,-1.853937321510417
mp-1097367,Ca2SnAu,0.8734224750000001
mp-1078274,Ca2SnGe2,-0.5492027509999999
mp-866229,Ca2SnHg,-0.6623730800000001
mvc-5666,Ca2SnIrO6,-2.3425753562500007
mp-1029915,Ca2SnN2,-0.8182828484519995
mp-4747,Ca2SnO4,-2.9020702607142854
mvc-3972,Ca2SnSbO6,-2.5581594432499997
mvc-5966,Ca2SnWO6,-2.6230585107500004
mp-1046181,Ca2Ta2CoO8,-3.0708715373076925
mp-1046171,Ca2Ta2CrO8,-3.1871860884615377
mvc-2427,Ca2Ta2CuO8,-2.9838182169230767
mp-1046246,Ca2Ta2FeO8,-3.1539951165384625
mp-1046172,Ca2Ta2MnO8,-3.2131420035353835
mp-1046168,Ca2Ta2NiO8,-3.0068450919230774
mp-14560,Ca2Ta2O6F,-3.4700293357899987
mp-680380,Ca2Ta2O7,-3.5035362819642852
mp-1045940,Ca2Ta2SnO8,-3.1176445761538454
mp-1045947,Ca2Ta2TiO8,-3.2679562951282035
mp-1046185,Ca2Ta2VO8,-3.2151233984615377
mp-1046286,Ca2Ta2WO8,-2.9288751811538463
mvc-4204,Ca2TaAgO6,-2.7009859267500005
mvc-4159,Ca2TaBiO6,-2.95293174225
mvc-4372,Ca2TaCoO6,-2.9271196377500006
mp-1214103,Ca2TaCrO6,-3.2429289907499985
mvc-4136,Ca2TaCuO6,-2.78443153225
mvc-4371,Ca2TaFeO6,-3.10217071025
mp-1214135,Ca2TaInO6,-3.1306341920833334
mp-572324,Ca2TaMnO6,-3.1298370658459995
mvc-4373,Ca2TaMoO6,-3.1326618937500017
mp-1029773,Ca2TaN3,-1.3510640857733318
mp-1043434,Ca2TaNb2O8,-3.0574582184615378
mvc-4380,Ca2TaNiO6,-2.77935072125
mvc-3970,Ca2TaSbO6,-2.9488672917500005
mvc-4168,Ca2TaSnO6,-3.00647943525
mvc-4129,Ca2TaTiO6,-3.464036656416668
mvc-4357,Ca2TaVO6,-3.2508782552499995
mvc-5018,Ca2TaWO6,-3.0435335842500004
mp-1227626,Ca2TbMn3O9,-2.7082550273308885
mvc-4727,Ca2TeO5,-2.365563874531249
mp-1047738,Ca2TeWO6,-2.42972963725
mp-555528,Ca2Th(Si2O5)4,-3.4491309783870965
mp-1096895,Ca2Ti2O5,-3.3036326143981483
mp-1227370,Ca2Ti2SiGeO10,-3.2767971753645835
mvc-2955,Ca2Ti3O8,-3.57253672576923
mp-1227907,Ca2Ti5(Bi2O9)2,-2.909118001925288
mp-776452,Ca2Ti6N2O11,-3.1791849849290483
mvc-4838,Ca2TiAlO5,-3.3790576225462967
mp-1227381,Ca2TiAlSi2O9F,-3.5323616555691677
mp-1227758,Ca2TiCrO6,-3.1002953884166664
mvc-5618,Ca2TiIrO6,-2.8232516009166666
mp-1227706,Ca2TiMnO6,-3.050026529012667
mvc-15307,Ca2TiN2,-1.1773372512853328
mp-1042259,Ca2TiNb2O8,-3.1395083797435888
mp-1096860,Ca2TiO4,-3.4646769166666664
mp-1227718,Ca2TiRuO6,-2.9024541739166674
mvc-3961,Ca2TiSbO6,-2.975914536916666
mp-1227786,Ca2TiSi2SnO10,-3.2211159324479155
mp-9413,Ca2TiSiO6,-3.4144716399166666
mvc-5090,Ca2TiWO6,-3.059906803916668
mp-861057,Ca2Tl2O5,-2.106401962916667
mp-1096035,Ca2TlAg,1.1313932624999998
mp-1097521,Ca2TlGa,1.2965338574999998
mp-1183453,Ca2TlHg,-0.5008547574999997
mp-1227698,Ca2TlIn,-0.4565180858333333
mp-861604,Ca2TlPb,-0.4872655675000002
mp-1183512,Ca2TlSn,-0.5409045362499998
mp-1183461,Ca2TlZn,-0.3426894612500002
mp-1214117,Ca2TmRuO6,-2.91020595075
mp-17956,Ca2UO5,-3.64669371578125
mvc-3985,Ca2V2O5,-2.794153469583333
mp-32434,Ca2V2O7,-2.9212018912499995
mp-1194234,Ca2V2O9,-2.164544623173077
mp-1227801,Ca2V2PbO8,-2.6614035611538456
mp-743702,Ca2V3Co2AgO12,-2.3322918939999995
mp-705890,Ca2V3Ni2AgO12,-2.250211001625
mvc-14765,Ca2V3O8,-2.8697509050000005
mp-567358,Ca2VBiO6,-2.760228912250001
mp-566768,Ca2VClO4,-3.0180101535325004
mp-705898,Ca2VFe4BiO12,-2.249643717875
mvc-5772,Ca2VIrO6,-2.49351235525
mp-1227834,Ca2VMoO6,-2.76568830975
mvc-15320,Ca2VN2,-1.0495699939519991
mp-17892,Ca2VN3,-1.3770564470233329
mp-1202810,Ca2VP3O11,-3.045706154128152
mvc-4111,Ca2VSbO6,-2.72629012175
mvc-5055,Ca2VWO6,-2.8157904542500005
mvc-3993,Ca2W2O5,-2.202412389027777
mvc-15493,Ca2W3O8,-2.2464622765384616
mvc-2865,Ca2W9O13,-1.170304217968751
mvc-13792,Ca2WN2,-0.8555891799519998
mp-772107,Ca2WO5,-2.9355916714062493
mp-1182411,Ca2Y2Si2CO16,-1.9977231225543481
mp-1214510,Ca2Y2Si4C3O23,-2.4887771291176466
mp-1197862,Ca2Y2Si4CO16,-3.1702799552500007
mp-720719,Ca2Y2Si4H2CO16,-3.1611793200366662
mp-1182042,Ca2Y3Si3O13,-3.5619429822023814
mvc-5327,Ca2YAgO5,-2.5565289884722207
mp-562728,Ca2YAs(WO6)2,-2.7779817802777798
mp-1214112,Ca2YBeO5,-3.23828721125
mvc-5445,Ca2YBiO5,-2.8836876068055566
mp-1047496,Ca2YCoO5,-2.844401460138889
mp-1047503,Ca2YCrO5,-3.1359351173611105
mvc-5240,Ca2YCuO5,-2.709330039583332
mp-694869,Ca2YFe3(SnO6)2,-2.562576205375
mp-743862,Ca2YFe4SbO12,-2.5084021165
mp-1047527,Ca2YFeO5,-3.0039478106944446
mp-1227926,Ca2YMn3O9,-2.7017763434419995
mp-1047494,Ca2YMnO5,-3.0461078769122207
mvc-5990,Ca2YMoO5,-3.0213125356944435
mp-1047556,Ca2YNiO5,-2.6880874234722225
mvc-6159,Ca2YSbO5,-2.9394853656944435
mp-1118314,Ca2YSnO5,-2.9876280556944437
mvc-5178,Ca2YTiO5,-3.3917122025462967
mp-1047440,Ca2YVO5,-3.1949885068055552
mvc-5817,Ca2YWO5,-2.89298750236111
mp-677126,Ca2YbF7,-3.885177686633
mp-1214109,Ca2YbRuO6,-2.68642585775
mp-1039208,Ca2Zn,-0.02762639
mp-571306,Ca2Zn2CuP3,-0.7626351183035718
mp-1227685,Ca2Zn3Ag,-0.3011308400000002
mp-1227661,Ca2Zn3Ga,-0.3604672316666668
mp-1200437,Ca2Zn3Si3PbO12,-2.7941448386904764
mp-1200089,Ca2Zn4As4O17,-1.9735951485648149
mp-1096168,Ca2ZnAg,1.15141663
mp-1214401,Ca2ZnAs2(H2O5)2,-2.098381662472632
mp-1183459,Ca2ZnCd,-0.27938420625000004
mp-1227662,Ca2ZnFe(SiO3)4,-3.055843930750002
mp-1183463,Ca2ZnGa,-0.3558840225000002
mp-1227660,Ca2ZnGa3,-0.4778099600000001
mp-1096151,Ca2ZnGe,1.24992722875
mp-18596,Ca2ZnGe2O7,-2.5803504957291667
mp-1183464,Ca2ZnHg,-0.3831594999999999
mp-1183608,Ca2ZnIn,-0.3557465183333335
mp-8818,Ca2ZnN2,-0.8549242749520005
mp-1183470,Ca2ZnPb,-0.44061913750000015
mp-1097116,Ca2ZnPd,1.0667510224999996
mp-1227973,Ca2ZnSb2,-0.7886170780000002
mp-6227,Ca2ZnSi2O7,-3.171192461979167
mp-1183468,Ca2ZnSn,-0.5051604362499997
mp-560339,Ca2Zr(SiO3)4,-3.4663375923684208
mp-667369,Ca2Zr5Ti2O16,-3.731027589583333
mp-1227737,Ca2ZrTi(GeO5)2,-3.107205410885417
mp-1227799,Ca2ZrTi(SiO5)2,-3.532932149010417
mp-1205338,Ca3(AlAs2)2,-0.9520593969444444
mp-10670,Ca3(AlGe)2,-0.5225042632142853
mp-29820,Ca3(AlN2)2,-1.3025800139744443
mp-1205337,Ca3(AlP2)2,-1.010114660674602
mp-9577,Ca3(AlSi)2,-0.4305387589285716
mp-530449,Ca3(AsO4)2,-2.7182397564560437
mp-1200693,Ca3(AsO9)2,-0.940901374565217
mp-1214604,Ca3(B3O10)2,-1.6770483912931031
mp-569257,Ca3(B3Rh4)2,-0.6228322554411768
mp-531265,Ca3(BN2)2,-1.3445773867059254
mp-3575,Ca3(BO3)2,-3.3032413771212132
mp-31278,Ca3(Bi2Pd)4,-0.5220759048333334
mp-1192828,Ca3(Cd2Pt)4,-0.5217822124999998
mp-1227871,Ca3(CdGa2)2,-0.4337479536111108
mp-1102874,Ca3(ClO3)2,-1.7411384615018186
mvc-10858,Ca3(CoN2)2,-0.2807364391133333
mp-18792,Ca3(CoO3)2,-2.435436224090909
mvc-11351,Ca3(CrN3)2,-0.38358812698
mp-570710,Ca3(Cu2Sn)4,-0.28753561016666634
mvc-11334,Ca3(CuO3)2,-2.166063229090909
mp-1215136,Ca3(Fe3O5)5,-2.0570455171802338
mp-1116769,Ca3(FeN2)2,-0.7469365746688889
mp-571162,Ca3(GaN2)2,-0.9046609068911105
mp-11285,Ca3(GaNi)4,-0.4825481838636376
mp-1189986,Ca3(GaP2)2,-0.8743541073412702
mp-31480,Ca3(GaPd)2,-0.7095484914285721
mp-31479,Ca3(GaPt)2,-0.8583820885714287
mp-18504,Ca3(GeAs2)2,-0.7777086124999997
mp-1095240,Ca3(GeIr)4,-0.663671942045454
mp-17817,Ca3(GeP2)2,-0.793941022619047
mp-675266,Ca3(HO3)2,-2.1190130324763627
mp-650513,Ca3(InAs2)2,-0.8081996599074073
mp-1229014,Ca3(InGa2)2,-0.4501146393518525
mp-21677,Ca3(InNi2)4,-0.2524652963888888
mp-1094154,Ca3(MgZn2)5,-0.1900882451388887
mp-1197377,Ca3(PO4)2,-3.3441536458424914
mp-1227743,Ca3(Ru2O7)2,-1.883391403809524
mp-1182561,Ca3(Si3O11)2,-2.185521108387096
mp-1195188,Ca3(Si4P7)2,-0.4012597794999999
mp-540696,Ca3(SiAs2)2,-0.8222892200000003
mp-11176,Ca3(SiIr)4,-0.8704622147727267
mp-1194866,Ca3(SiP2)2,-0.8858155045634928
mp-1044964,Ca3(TiS2)4,-1.933128459444445
mp-1048666,Ca3(TiS2)8,-1.9180468270679016
mp-680302,Ca31Sn20,-0.6556489566176471
mp-1229316,Ca33In4P28Pb3O112,-3.1711845040046285
mp-1229268,Ca33Mo27O80,-2.558851026410714
mp-568774,Ca36Sn23,-0.6550700065254238
mp-1183486,Ca3Ac,0.06049050270833334
mp-1183452,Ca3Ag,-0.05670967062500053
mvc-4248,Ca3Ag2(GeO4)3,-2.1097743485
mp-646824,Ca3Ag8,-0.2296265956818182
mp-1214222,Ca3Al2(GeO4)3,-2.969581540625001
mp-23882,Ca3Al2(HO)12,-2.1624321106358617
mp-6008,Ca3Al2(SiO4)3,-3.4617632215
mp-1228003,Ca3Al2(SiO6)2,-2.899447353947368
mp-23872,Ca3Al2H6S(OF)8,-2.9081881333143733
mp-1182533,Ca3Al2O12,-1.8095154402941187
mp-12147,Ca3Al2O6,-3.4134628883333336
mp-1198254,Ca3Al2S(OF)8,-2.7872722780037504
mp-1203850,Ca3Al2SO16,-1.6803477841619312
mp-1029921,Ca3Al3N5,-1.3592995872181817
mp-1199096,Ca3Al4CoO10,-3.2204894720833326
mp-677067,Ca3Al4Si8(ClO12)2,-3.2163409597321952
mp-1227806,Ca3Al4SiO12,-3.146575110375001
mp-557955,Ca3Al4ZnO10,-3.2752790213888883
mp-11430,Ca3Al7Ag2,-0.3127564135416669
mp-10876,Ca3Al7Cu2,-0.3237579110416669
mp-17186,Ca3AlAs3,-1.0654302371428568
mp-680394,Ca3AlCd17,-0.18915656065476172
mp-1227902,Ca3AlFe(SiO4)3,-3.267690979000001
mp-29596,Ca3AlN3,-1.1752025935200001
mp-18300,Ca3AlSb3,-0.836959962857143
mp-1096854,Ca3As2,-0.7704351184999999
mp-1237313,Ca3As2(W5O4)2,0.019094088804347046
mp-1041855,Ca3As4W3O16,-1.9989843456730767
mp-27294,Ca3AsBr3,-1.791343126785714
mp-28069,Ca3AsCl3,-2.256357996754286
mp-1214087,Ca3AsI3,-1.5281202796428577
mp-4192,Ca3AsN,-1.172102311976
mp-1013642,Ca3AsP,-0.8591480259285718
mp-9040,Ca3AuN,-0.8334571089760004
mp-1182037,Ca3B4(H4O)3,-1.1723606750616675
mp-1182639,Ca3B5Cl2O21,-1.4571030233420426
mp-1215119,Ca3B5W8Cl2O13,-1.203089329954946
mp-707129,Ca3B6(H4O5)4,-2.198454387787109
mp-1214049,Ca3BCBr2N,-1.2542711222245837
mp-649453,Ca3BCNCl2,-1.5510807552270829
mp-1195197,Ca3BI3N2,-1.5200378748807408
mp-30315,Ca3BN3,-1.2487830609009518
mp-707876,Ca3Be2P4(HO2)10,-2.480373739930037
mp-699464,Ca3Be2Si3(HO6)2,-3.1198376644200008
mp-1013735,Ca3Bi2,-0.4639869825000002
mvc-13034,Ca3Bi2(AsO6)2,-2.237198093026316
mvc-3359,Ca3Bi2O7,-2.436767579270834
mp-1227757,Ca3BiAu14,-0.396677585972222
mp-31149,Ca3BiN,-1.0936383579759998
mp-1013558,Ca3BiP,-0.9662722619285709
mp-28160,Ca3C3Cl2,-1.16664455128375
mp-1183501,Ca3Cd,-0.12351003687500015
mp-18167,Ca3Cd2,-0.29488031150000005
mp-1227791,Ca3Cd5(P2O7)4,-2.6920121529464285
mp-755287,Ca3CdO4,-2.8514903403125
mp-622557,Ca3Co(SeO3)4,-2.0985674063437507
mvc-4409,Ca3Co2(GeO4)3,-2.4106119338750007
mvc-14984,Ca3Co2(RhO6)2,-1.6596848119736844
mvc-4580,Ca3Co2(Si2O7)2,-2.942079214130435
mp-1163930,Ca3Co2(SiO4)3,-2.9000966970000017
mvc-12889,Ca3Co2(TeO6)2,-2.090675718289474
mvc-13348,Ca3Co2(WO6)2,-2.391071467763158
mvc-3670,Ca3Co2O7,-2.2527392492708334
mp-1047370,Ca3Co3(AsO4)4,-2.1581300662500005
mp-1096877,Ca3Co4O9,-2.080361167734375
mp-1200470,Ca3Co4Sn13,-0.28823015387499995
mp-1029610,Ca3CoN3,-0.8135244520914284
mp-1182068,Ca3CoO6,-2.3252464825000003
mp-555261,Ca3CoRhO6,-2.3954416604545457
mp-1048585,Ca3Cr2(GeO4)3,-2.708804074125001
mvc-4549,Ca3Cr2(Si2O7)2,-3.1621377491304337
mp-19599,Ca3Cr2(SiO4)3,-3.20013689775
mvc-3681,Ca3Cr2O7,-2.743790710520833
mp-1047487,Ca3Cr3(AsO4)4,-2.31545183548077
mp-566617,Ca3Cr3(PO4)4,-2.9256598250412087
mvc-8026,Ca3Cr6(FeO6)4,-2.059309064662161
mp-8670,Ca3CrN3,-1.0866478378057138
mp-545706,Ca3Cu2(BrO2)2,-2.1307554243181817
mp-23095,Ca3Cu2(ClO2)2,-2.3197445967290906
mvc-4220,Ca3Cu2(GeO4)3,-2.2488457198750007
mvc-4083,Ca3Cu2(Si2O7)2,-2.822828465652173
mp-1163936,Ca3Cu2(SiO4)3,-2.733402180125
mp-1227859,Ca3Cu2Ni(PO4)4,-2.644749025233516
mp-555937,Ca3Cu3(AsO4)4,-2.0382940322115384
mp-6118,Ca3Cu3(PO4)4,-2.6324586111950548
mp-722867,Ca3Cu5Si9O26,-2.758183829069768