task_id,composition,formation_energy_per_atom
mp-1214541,Ba6Dy2Al4O15,-3.4285531699537035
mp-1214605,Ba6Dy2Ga4O15,-3.0108254205092595
mp-555481,Ba6Er2Ga4O15,-3.0205842695833325
mp-556702,Ba6Eu(ClF6)2,-3.9799861697999983
mp-686328,Ba6Fe14Cu11S27,-0.9676323208566804
mp-1196681,Ba6Fe25S27,-0.9865324282704746
mp-1214735,Ba6Fe3Si8C2(ClO10)3,-2.83870832778423
mp-27489,Ba6Fe8S15,-1.3960228348599135
mp-642047,Ba6Ga2Co11O26,-1.8992787113888887
mp-16859,Ba6Ga5N,-0.4710661076983335
mp-1229259,Ba6Gd(ReO6)3,-2.892509539107144
mp-1214682,Ba6Gd2Al4O15,-3.4029535903240733
mp-569965,Ba6Ge25,-0.2839690429032259
mp-1228029,Ba6Ge2N7,-0.5692945044439994
mp-601322,Ba6Ge5N2,-0.6456568872892304
mp-554688,Ba6Hf5S16,-2.2429399962962973
mp-755610,Ba6HfO8,-3.105215353
mp-1228344,Ba6Ho2Al2Rh2O15,-2.9522376681018505
mp-1214596,Ba6Ho2Ga4O15,-3.015549334583332
mp-996942,Ba6In2NF,-0.9681685925236672
mp-672306,Ba6In5N,-0.4769611007538887
mp-1228747,Ba6La2Co4O15,-2.5836112653240746
mp-1228690,Ba6La2Fe4O15,-2.7854208273611114
mp-1228569,Ba6La2Ga4O15,-2.9516883449537037
mp-1198788,Ba6Li2Si4ClO15,-3.1746576684646435
mp-773118,Ba6Li2Ta9Ti7O42,-3.429279300593433
mp-775484,Ba6Li2Ti16O39,-3.481188025165345
mp-772829,Ba6Li2Ti7(Sb3O14)3,-2.738050721123737
mp-773084,Ba6Li2Ti7Nb9O42,-3.2835039831691915
mp-19673,Ba6Lu2(WO6)3,-3.1231344904310343
mp-1214530,Ba6Lu2Al4O15,-3.4496760610648147
mp-1214574,Ba6Lu2Ga4O15,-3.0293020036574068
mp-30942,Ba6Mg11F34,-3.962575493146274
mp-568512,Ba6Mg23,-0.07241819517241374
mp-18549,Ba6Mg7F26,-3.9926794166907698
mp-697671,Ba6Mg7H26,-0.4723274370287177
mp-1228107,Ba6Mn2Zn(ClF2)6,-3.3683926392874066
mp-1228260,Ba6Mn4Co2ClO16,-2.399625446106896
mp-1228733,Ba6Mn4Si12Cl3O34,-3.1020178906122036
mp-510224,Ba6Mn5O16,-2.529538659992591
mp-505213,Ba6Na16N,-0.06780595271217378
mp-554687,Ba6Na2As2Ru2O17,-2.4706380783189656
mp-565759,Ba6Na2Cr2Ru2O17,-2.423005371594828
mp-1214806,Ba6Na2Mn2Nb2O17,-2.7500212651093103
mp-561784,Ba6Na2Mn2Ru2O17,-2.347969593902413
mp-556637,Ba6Na2Nb2P2O17,-3.157310691915024
mp-1228103,Ba6Na2Nb2V2O17,-3.02632910487069
mp-774691,Ba6Na2P2Ru2O17,-2.7435285203633
mp-560889,Ba6Na2Si4O15,-3.232250673287037
mp-1214895,Ba6Na2Ta2Mn2O17,-2.8249248876955164
mp-1214664,Ba6Na2Ta2V2O17,-3.0915942898706903
mp-19501,Ba6Na2V2Ru2O17,-2.613794740215518
mp-1214658,Ba6Na2V2Sb2O17,-2.7387781372844837
mp-569168,Ba6NaCu3Te14,-0.9923299172916664
mp-1214692,Ba6NaNd(SiO4)4,-3.3445429841964285
mp-560469,Ba6Nb14Si4O47,-3.2132123616725345
mp-558113,Ba6Nb2Ir(ClO6)2,-2.9378109500660874
mp-583297,Ba6Nb4S13O3,-2.2031863526562505
mp-685968,Ba6Nb5S17,-1.8426575360379465
mp-1228527,Ba6Nb9CoO30,-3.106615446467393
mp-1228466,Ba6Nd2Al4O15,-3.3459027706944444
mp-1228695,Ba6Nd2Fe4O15,-2.7667621438425933
mp-16662,Ba6Nd2Ti4O17,-3.4933182713074715
mp-1228347,Ba6Nd2Y(CuO2)12,-2.031355400111112
mp-1228132,Ba6Nd2Y(MoO6)3,-3.05667582525
mp-1228694,Ba6Nd3TiCu6(MoO12)2,-2.5475913154563496
mp-9415,Ba6Ni25S27,-1.0078759237877148
mp-1104257,Ba6Os2N6O,-0.9528657723686668
mp-1228751,Ba6Pr2Co4O15,-2.5615423790277783
mp-1228608,Ba6Pr2Fe4O15,-2.7608197647685184
mp-1228902,Ba6Pr2Y(CuO2)12,-2.027958404888889
mp-570423,Ba6Pr3I19,-1.652901752857143
mp-1104571,Ba6Re2N6O,-1.1066834440353328
mp-554949,Ba6Ru2Pt(ClO6)2,-2.392436435283479
mp-558595,Ba6Ru3(ClO6)2,-2.4438550289791308
mp-16094,Ba6Si25,-0.18472194862903188
mp-1214762,Ba6Si6CN14,-1.210751248965556
mp-1228395,Ba6Sm3Al(Cu2O5)4,-2.3035644487500004
mp-1204773,Ba6Sn7S20,-1.447248803825758
mp-772883,Ba6Sr11I34,-1.6654113249019609
mp-1076296,Ba6Sr2CoCu7O20,-1.8885856648611108
mp-1076247,Ba6Sr2CoCu7O24,-1.7238378224999995
mp-768732,Ba6SrI14,-1.7045134711904764
mp-773060,Ba6Ta9Ti7O42,-3.50015356608073
mp-1214513,Ba6Tb2Al4O15,-3.4231459435339486
mp-1214551,Ba6Tb2Ga4O15,-3.0048472094598764
mp-686370,Ba6Tb3Nb(SnO9)2,-3.0308153779722224
mp-1197646,Ba6Te10Br2O25,-2.0998902929941865
mp-556729,Ba6Ti17O40,-3.5345267487037035
mp-677246,Ba6Ti2Nb10Si8O51,-3.2923309707413404
mp-1228124,Ba6Ti5PtO18,-3.249079793861112
mp-555781,Ba6Ti5S15O,-2.1974992681674377
mp-773058,Ba6Ti7(Sb3O14)3,-2.7768685764713537
mp-773061,Ba6Ti7Nb9O42,-3.33825625436198
mp-989542,Ba6Tl2NCl,-0.7475091525639996
mp-1214515,Ba6Tm2Al4O15,-3.444225369212962
mp-1214558,Ba6Tm2Ga4O15,-3.0266543332870364
mp-583417,Ba6V4S11O5,-2.0900512585937507
mp-1228593,Ba6Y(ReO6)3,-2.9023414148214286
mp-1214519,Ba6Y2Al4O15,-3.421110068287037
mp-1196872,Ba6Y2Co4O15,-2.6324927669907408
mp-1198058,Ba6Y2Fe4O15,-2.8216010016203708
mp-1214542,Ba6Y2Ga4O15,-3.0017261318055546
mp-1228458,Ba6Y2Ru3PtO18,-2.5909007615833337
mp-16663,Ba6Y2Ti4O17,-3.5470560506178166
mp-1228789,Ba6Y3Co3(Cu3O11)2,-2.231508630937499
mp-1228278,Ba6Y3Cu9O20,-2.20251329486842
mp-777731,Ba6YBr15,-2.1108061420454542
mp-777883,Ba6YCl15,-2.817756400290909
mp-776782,Ba6YI15,-1.682254298636363
mvc-13160,Ba6YTl3(Cu2O7)3,-1.7561179946283787
mp-720249,Ba6Yb6Al13Si11N29O13,-1.752479459811154
mp-569635,Ba6Zn(InCl10)2,-2.4053447335126443
mp-31026,Ba6Zn7F26,-3.3450765960497435
mp-1120751,Ba6ZnCo5(SiO4)6,-2.8394249615476186
mp-1202124,Ba6Zr(Zn3S7)2,-1.8048288609953704
mp-755556,Ba6ZrO8,-3.0714949380000003
mp-676990,Ba7(Al3Te8)2,-0.8743540237931033
mp-27261,Ba7(BIr)12,-0.4754795496774197
mp-23547,Ba7(ClF6)2,-3.998436057180952
mp-672715,Ba7(Fe3S7)2,-1.6067702337731486
mp-570400,Ba7Al10,-0.2309582870588233
mp-1952,Ba7Al13,-0.21206440949999994
mp-567067,Ba7Al4Ge9,-0.5114457907499996
mp-1195461,Ba7Al4Sb9,-0.778465598000001
mp-667379,Ba7Al64O103,-3.4631702270043085
mp-562764,Ba7B4S13,-1.8481508733116323
mp-583221,Ba7B4Se13,-1.286889701807727
mp-1214422,Ba7BrClF12,-3.947796355597143
mp-687011,Ba7Ca2Mn5O20,-2.6111306780823527
mp-1228287,Ba7Cd31,-0.2418802032894734
mp-707874,Ba7Cu3H17,-0.4914349215385183
mp-1204692,Ba7Fe6(OF16)2,-3.1967457906506382
mp-553974,Ba7Fe6CuF34,-3.380838557509584
mp-1214486,Ba7Fe7F34,-3.4348259868845834
mp-1195273,Ba7Ga4As9,-0.8943755670000002
mp-1195680,Ba7Ga4P9,-0.8521724204642851
mp-28314,Ba7Ga4Sb9,-0.7680387097499999
mp-1198460,Ba7Ga5AgSe15,-1.3375575222823668
mp-1194759,Ba7Ge39,-0.1916806039130433
mp-1204965,Ba7Ge6,-0.5570229019230771
mp-1194795,Ba7GeB3BrO13,-3.0405423133500005
mp-1194658,Ba7GeB3ClO13,-3.0834951811804
mp-1228441,Ba7Hg31,-0.32801165
mp-1192196,Ba7In2(Se3F4)2,-2.8309613138151817
mp-28867,Ba7Ir6O19,-2.085584821992187
mp-1228662,Ba7Li3(RuO5)4,-2.2783279354411765
mp-556644,Ba7MnFe6F34,-3.454096836279584
mp-695409,Ba7Na3Ti7Nb3O30,-3.287340356783332
mp-567157,Ba7Na5Li3N3,-0.26626595845222195
mp-1228195,Ba7Nb4MoO20,-3.162003356406249
mp-758059,Ba7Pb17O24,-1.901085554583334
mp-556877,Ba7Ru4Br2O15,-2.3286736731696425
mp-554143,Ba7Ru4Cl2O15,-2.405072763759642
mp-559325,Ba7Sc6Al2O19,-3.5357040489338223
mp-695708,Ba7SiB3NO13,-2.9494712619452
mp-1096868,Ba7Sn3S13,-1.8453354533831519
mp-569754,Ba7Sn3Se13,-1.4181745582269019
mp-1214827,Ba7Sn3Te3Se10,-1.3571579328668475
mp-1099795,Ba7Sr(Cu2O5)4,-1.841022836875
mp-1099824,Ba7Sr(CuO3)8,-1.6775883605000004
mp-1228681,Ba7Sr5(MoN4)4,-1.0842912966587497
mp-1076342,Ba7SrCoCu7O24,-1.71258871075
mp-1228174,Ba7Ti2Nb4O21,-3.3492639949877447
mp-685632,Ba7U7O24,-3.6092136655263163
mp-1194914,Ba7V6CoCl4O21,-2.80307169587923
mp-867542,Ba8(Bi2O7)3,-2.288161179321428
mp-550470,Ba8(CoO3)7,-2.1403270879513894
mp-561502,Ba8B5N10F,-1.3786745026384726
mp-761784,Ba8Bi10O27,-2.0987804774166663
mp-676105,Ba8Bi2F17,-3.384286273897408
mp-865213,Ba8Bi4H2O,-1.1492276252326663
mp-765612,Ba8Bi4O17,-2.3638718183189646
mp-1228256,Ba8Ca3Nb5O24,-3.2518426083125007
mp-1228371,Ba8Ca4Cu8Hg4O25,-2.006664581658163
mp-1228779,Ba8Ca5Mn3Fe8F56,-3.5290987373377503
mp-1204270,Ba8Ca8Tl7(Cu4O13)3,-1.983762841266892
mp-667498,Ba8CaY2U4O24,-3.5863209442307697
mp-1228323,Ba8CaY3(CuO2)12,-2.192977937864584
mp-561045,Ba8Ce3(SbO6)4,-3.00748955974359
mp-695164,Ba8Ce7YHO24,-3.5017604489907317
mp-704890,Ba8Co7O19,-2.139380169227941
mp-1228271,Ba8Cu4Hg4O17,-1.9211042891287882
mp-766404,Ba8Cu8O19,-1.91461729725
mp-1192107,Ba8CuSi16,-0.3252175252000001
mp-1214436,Ba8Dy3(Pt2O9)2,-2.663959608257576
mp-1228663,Ba8Eu(BN2)6,-1.1891494205022226
mp-1198571,Ba8Eu7Cl34,-2.7647074835885714
mp-761960,Ba8Fe8O21,-2.3393118134121624
mp-30429,Ba8Ga7,-0.3656416996666669
mp-1229327,Ba8Gd4(Cu4O9)3,-2.19067237125
mp-1199827,Ba8Ge43,-0.2166941981862749
mp-1228873,Ba8Ge43Pd3,-0.2785106156481479
mp-1214459,Ba8Ho3(Pt2O9)2,-2.6726675078030304
mp-758269,Ba8In6O17,-2.4211213993951617
mp-757574,Ba8In8O19,-2.390873894869048
mp-1228109,Ba8Li13GaSb12,-0.8272134364705884
mp-773072,Ba8LiNb7O24,-3.1878253695000014
mp-772523,Ba8LiTa7O24,-3.3174970375
mp-1214446,Ba8Lu3(Pt2O9)2,-2.701270469772728
mp-1228330,Ba8Mn6Co2ClO22,-2.4201584347825635
mp-694888,Ba8Mn8O21,-2.5032176655116207
mp-764369,Ba8Mn8O23,-2.4919041327289744
mp-640790,Ba8Nb6CoO24,-3.191726141538461
mp-780569,Ba8Nb7O24,-3.2199261843589757
mp-531036,Ba8Nb7S24,-1.83602139775641
mp-28685,Ba8Ni6N7,-0.5801150731742857
mp-34034,Ba8P5Br,-1.1612873621938768
mp-1228958,Ba8PrY3(Cu3O7)4,-2.180332534711539
mp-654327,Ba8Re2(WO8)3,-2.7250730460810813
mp-1104424,Ba8Sb4H2O,-1.221465386566
mp-561455,Ba8Sb6S17,-1.6200343217439517
mp-1214448,Ba8Sc3(Pt2O9)2,-2.677788999469697
mp-1228259,Ba8Si43Au3,-0.20728334907407328
mp-1228480,Ba8Si43Ni3,-0.21525593092592613
mp-1200444,Ba8Si6Sn,-0.44762333150000017
mp-1228031,Ba8Sr(BN2)6,-1.1906525577244431
mp-1229001,Ba8Sr2Sm5(Cu3O7)5,-2.184081489942308
mp-1228720,Ba8Sr2Yb5(Cu3O7)5,-2.0527389942115386
mp-1228515,Ba8Sr3Ca(WO6)4,-2.9870518989375
mp-1228251,Ba8SrCa3(WO6)4,-3.0193796958124985
mp-1228432,Ba8Ta2Ru3(BrO9)2,-2.72648165719697
mp-1228423,Ba8Ti3Co(SiO4)8,-3.305022657884616
mp-1228557,Ba8Ti3Nb4O24,-3.35237917948718
mp-677325,Ba8Tl2Bi2Pb4O17,-2.0806065257954542
mp-1202453,Ba8U3(HgS6)3,-1.944865862285157
mp-557098,Ba8V7O22,-2.9004849723648647
mp-1229138,Ba8Y3Lu(CuO2)16,-2.047862647833333
mp-1228425,Ba8Y4(Cu4O9)3,-2.2010077381127453
mp-1228285,Ba8Y4Cu(WO8)3,-3.0597384035000004
mp-667372,Ba8Zr3(SbO6)4,-3.005471382564103
mp-1228755,Ba8ZrNb19O36,-2.9211865294531236
mp-28788,Ba9(AuO6)2,-2.473567879130436
mp-1229328,Ba9(FeSe4)4,-1.3265314211206891
mp-675219,Ba9(LaS6)2,-2.4165901160326086
mp-541765,Ba9(NbN6)2,-0.8862628166765205
mp-673874,Ba9(NdS6)2,-2.385352184076087
mp-554262,Ba9(RhO3)8,-2.1200896521951225
mp-667314,Ba9(TaN6)2,-0.9354942553721741
mp-1228537,Ba9Ca3La4(Fe4O15)2,-2.832333859814815
mp-559813,Ba9Cu7Cl2O15,-1.9285715701596973
mp-555262,Ba9Fe4S15,-1.8233978567299105
mp-1202498,Ba9Ge23O57,-2.3478033281601127
mp-1105101,Ba9In4,-0.2795177448717948
mp-1204134,Ba9In4(SF)10,-2.7870895578290416
mp-1104568,Ba9In4H,-0.32539656228238106
mp-695214,Ba9La3Mg5Nb7O36,-3.3034015330833326
mp-851112,Ba9La5Br33,-2.1339566531914897
mp-781880,Ba9La5Cl33,-2.899241962288937
mp-851110,Ba9La5I33,-1.6602273371276597
mp-677030,Ba9La9Cu9Ru9O46,-2.160070004786585
mp-559419,Ba9LiSi10C(ClO4)7,-3.2087642686887503
mp-33581,Ba9Nb10O30,-3.2054703899489803
mp-560022,Ba9Nb2CN10O,-1.174684585165217
mp-1205126,Ba9Pr6Br34,-2.0453939320408163
mp-772389,Ba9Rh8O27,-2.0265031117897725
mp-558428,Ba9Sc2(SiO4)6,-3.4588777119512204
mp-567646,Ba9Sm6Cl34,-2.789424217466122
mp-1195654,Ba9U4(Ag5S12)2,-1.6174795506914896
mp-1019533,Ba9Y2(SiO4)6,-3.4607958900000004
mp-1183364,BaAc3,0.11067492375
mp-10070,BaAg(PO3)3,-2.6425083717984696
mp-557862,BaAg2(HgO2)2,-1.1312902444444444
mp-7394,BaAg2GeS4,-1.1038296614062508
mp-569790,BaAg2GeSe4,-0.7167145974218752
mp-555166,BaAg2SnS4,-1.0960012664062502
mp-569114,BaAg2SnSe4,-0.735295039921875
mp-1048230,BaAg4O7,-0.3931964961458328
mp-1814,BaAg5,-0.16469633333333356
mp-29682,BaAg8S5,-0.5877241685937504
mp-7359,BaAgAs,-0.7914114933333334
mp-1205318,BaAgBi,-0.6495687133333335
mp-996990,BaAgO2,-1.7710603606249995
mp-9899,BaAgP,-0.727908527380953
mp-1086652,BaAgSF,-2.3013814250631253
mp-1205316,BaAgSb,-0.7785170266666667
mp-1195220,BaAgSbS3O,-1.0372003385267858
mp-1079647,BaAgSeF,-2.1555113999459383
mp-16742,BaAgTeF,-2.0869272215475
mp-1079984,BaAl,-0.11880764749999972
mp-556178,BaAl2(GeO4)2,-2.9162540755769237
mp-6091,BaAl2(SiO4)2,-3.4700357348076927
mp-1204499,BaAl2(SiO5)2,-2.6331626199166664
mp-9844,BaAl2B2O7,-3.2669189693402787
mp-1195111,BaAl2C2O11,-1.7943685488281256
mp-1238408,BaAl2H10C2O13,-1.632724614283929
mp-4202,BaAl2O4,-3.46230893125
mp-1196014,BaAl2O6,-2.3431088844444443
mp-1190674,BaAl2O8,-1.6397300563636366
mp-12885,BaAl2Sb2O7,-2.783178064895833
mp-1019531,BaAl2Si3(NO)4,-2.3964460046085714
mp-1214647,BaAl2Si3(W2O5)2,-1.5912348056249996
mp-1228625,BaAl2Si3O14,-2.407254519874999
mp-1214482,BaAl3(PO7)2,-2.3916566065892852
mp-696776,BaAl3P2(HO7)2,-2.546243135410261
mp-1903,BaAl4,-0.2353575440000001
mp-1196877,BaAl4(SbO6)2,-2.951224325263158
mp-1019534,BaAl4O7,-3.4622578755208337
mp-8258,BaAl4S7,-1.6915242248697917
mp-1193237,BaAl5O9,-3.299084776416667
mp-16483,BaAl9Fe2,-0.3173298133333328
mp-12549,BaAl9Ni2,-0.3618084949999994
mp-1195235,BaAlB4H3O10,-2.7116705836856125
mp-558491,BaAlBO3F2,-3.559026517224583
mp-1214458,BaAlCdF7,-3.5948287148329996
mp-1048382,BaAlCo4O7,-1.9522374637499995
mp-1042494,BaAlCoCuO5,-1.9339865484722216
mp-1048544,BaAlCr4O7,-2.119937264903846
mp-1042497,BaAlCrCuO5,-2.141775804027777
mp-1042186,BaAlCu2O5,-1.8066704784722232
mp-1048141,BaAlCu4O7,-1.6415947568269234
mp-1042181,BaAlCuAgO5,-1.5965336040277769
mp-1042180,BaAlCuBiO5,-1.907187064583333
mp-1042504,BaAlCuMoO5,-1.9567021929166664
mp-1042478,BaAlCuNiO5,-1.768409042916666
mp-1042194,BaAlCuSbO5,-1.898345351249999
mp-1042199,BaAlCuSnO5,-1.9876448790277768
mp-1044976,BaAlCuWO5,-1.95002250625
mp-4376,BaAlF5,-4.064777319421428
mp-1048359,BaAlFe4O7,-2.129794716442308
mp-1042464,BaAlFeCuO5,-2.0729037318055554
mp-1227987,BaAlGaO4,-3.0281943128571425
mp-13272,BaAlGe,-0.4698947616666669
mp-1078453,BaAlGeF,-1.8202890615474998
mp-1207108,BaAlGeH,-0.5480374909049996
mp-644097,BaAlH5,-0.4328231057999997
mp-1048397,BaAlNi4O7,-1.5310857902884611
mp-1183283,BaAlO3,-2.910435402750001
mp-1104383,BaAlO5,-1.7549977094642852
mp-1214467,BaAlPO5F,-3.139544822453652
mp-13149,BaAlSi,-0.3865411300000001
mp-1019537,BaAlSi4N5O3,-2.082865961117856
mp-1227994,BaAlSi5N7O2,-1.8180770424475
mp-571093,BaAlSiH,-0.4700394896549995
mp-1227950,BaAlSn,-0.4526234116666661
mp-1048159,BaAlSn4O7,-1.9968543156730767
mp-1048345,BaAlV4O7,-2.30300950375
mp-1042520,BaAlVCuO5,-2.2132519662500005
mp-1048423,BaAlW4O7,-1.411910335673078
mp-31243,BaAs2,-0.7846915488888884
mp-1214710,BaAs2F12,-2.8236985042853333
mp-9767,BaAs2Pd,-0.81992932
mp-9769,BaAs2Pt,-0.8466840750000006
mp-1214472,BaAs2Xe5F22,-1.8524095018726667
mp-15325,BaAs3,-0.6247322700000004
mp-1077361,BaAsAu,-0.9287402549999998
mp-23806,BaAsH3O5,-2.014733110086
mp-23810,BaAsHO4,-2.2916901243564283
mp-9744,BaAsPd,-0.9350311483333336
mp-8458,BaAsPt,-0.997311445
mp-570775,BaAu,-0.7196187900000002
mp-1190864,BaAu2(SO4)4,-1.8767371976630431
mp-30364,BaAu5,-0.4416559433333334
mp-1100397,BaAuCl,-1.4196245710866668
mp-997009,BaAuO2,-1.7912297056249995
mp-1183287,BaAuO3,-1.4641470387500006
mp-720736,BaB2(HO)8,-1.4071861705812274
mp-558430,BaB2F8,-3.5633084720775754
mp-1182666,BaB2H10O9,-1.6023396667401506
mp-757727,BaB2H2O5,-2.597721595849
mp-1196854,BaB2O9,-1.0474422307986109
mp-1019539,BaB2S3O13,-2.4372065929879385
mp-1195214,BaB4(SbO6)2,-2.6268369898245614
mp-27692,BaB4O7,-3.0370004962847226
mp-27794,BaB8O13,-2.9586012023674253
mp-1198994,BaBAsF10,-3.194956257197436
mp-9784,BaBAsO5,-2.6413736159895818
mp-1103527,BaBClF4,-3.4423359592409533
mp-1214407,BaBO3,-1.5880272540833338
mp-13680,BaBOF3,-3.522398834414444
mp-1199844,BaBPF10,-3.4054202454391937
mp-6040,BaBPO5,-3.13278323688244
mp-866301,BaBSbS4,-1.3061861972023812
mp-30425,BaBe13,0.04263120035714252
mp-555070,BaBe2(BO3)2,-3.133739807348485
mp-1227988,BaBe2(PO4)2,-3.145887708021978
mp-12797,BaBe2Si2O7,-3.3212777923958337
mp-631532,BaBe2Te,0.5261384625000001
mp-12431,BaBeF4,-3.948235304543333
mp-631517,BaBeGa,0.8606784783333333
mp-1183282,BaBeO3,-2.0391865557500006
mp-754604,BaBePO4F,-3.3409964916666066
mp-1227947,BaBeSi,-0.14729782499999958
mp-550751,BaBeSiO4,-3.338834908571428
mp-582874,BaBi12Mo4WO34,-1.9539713412019235
mp-1215003,BaBi12Mo5O34,-1.9529719122596143
mp-560550,BaBi2(B2O5)2,-2.6446483980392155
mp-1227974,BaBi2(BrO)2,-1.2810965675
mp-1228023,BaBi2(IO)2,-1.1212679160714285
mp-642792,BaBi2(MoO4)4,-2.16799565173913
mp-1228075,BaBi2Br2O5,-1.2858461086249988
mp-35915,BaBi2O5,-1.8450706657812503
mp-23201,BaBi3,-0.4561037587500003
mp-561172,BaBi4(BrO3)2,-1.6940757905769233
mp-560145,BaBi4(ClO3)2,-1.8333609533861543
mp-546846,BaBi4(IO2)2,-1.2673935613636365
mp-675450,BaBi4O7,-1.7899182748958335
mp-554084,BaBi6(PO5)4,-2.4049184020506917
mp-31140,BaBiAu,-0.279551136666667
mp-559186,BaBiBO4,-2.6243368955952384
mp-861618,BaBiBS4,-1.3141298347023809
mp-1206552,BaBiBrO2,-2.2279718185
mp-552806,BaBiClO2,-2.412333297152
mp-1041349,BaBiF7,-2.8547797912033333
mp-551243,BaBiIO2,-2.1165689885
mp-1228172,BaBiNO5,-1.87262376857875
mp-559051,BaBiO3,-2.247275722250001
mp-27365,BaBiSe3,-1.03249038565625
mp-27456,BaBr2,-2.22809758
mp-1188828,BaBr2O,-1.7091716840625004
mp-1193601,BaBr2O11,-0.05042461026785716
mp-1188738,BaBr2O7,-0.8595441808749988
mp-1183339,BaBr3,-1.43971036125
mp-1012551,BaBrCl,-2.6054959810866682
mp-23070,BaBrF,-3.256143617063332
mp-997616,BaC,1.3945839256249997
mp-18027,BaC10,0.16933647416666728
mp-10293,BaC2,0.08562601083333378
mp-1195678,BaC2(NO)2,-1.5557659535371424
mp-10928,BaC2(SN)2,-0.7787190086264287
mp-28979,BaC20,0.2312699148412685
mp-1214493,BaC2O5,-1.742403001718749
mp-638469,BaC2S2(OF)6,-2.2019010473685303
mp-1194836,BaC4(O2F3)2,-2.108858203476
mp-1214417,BaC6,-0.08032397035714313
mp-1029375,BaCN2,-0.9841189775441658
mp-5504,BaCO3,-2.6965854585000004
mp-1214434,BaCO4,-1.9645674710416667
mp-556856,BaCSNCl,-1.4345160006904998
mp-1227938,BaCa,0.03356199124999981
mp-1046998,BaCa(AgO2)4,-0.9364636619642848
mp-1047131,BaCa(BiO2)4,-1.9753952169642848
mp-6568,BaCa(CO3)2,-2.69388924425
mvc-14421,BaCa(CoN2)2,0.07933608443500084
mp-1044463,BaCa(CoO2)4,-1.8086381098214284
mp-1046980,BaCa(CuO2)4,-1.4427972198214276
mp-18950,BaCa(FeO2)4,-2.2583169376785714
mp-561446,BaCa(GaO2)4,-2.6459387198214284
mp-1044745,BaCa(MoO2)4,-1.8923900576785704
mp-1044567,BaCa(NiO2)4,-1.3389074441071431
mp-556122,BaCa(PO3)4,-3.009424162420636
mp-1047093,BaCa(SbO2)4,-2.027668376964286
mp-1047389,BaCa(SnO2)4,-2.1663334483928574
mp-1048070,BaCa(WO2)4,-1.5908207812499993
mvc-11312,BaCa2(CoN2)2,-0.2457292207799995
mp-6404,BaCa2(PN2)6,-1.0718973723293863
mp-18216,BaCa2(SiO3)3,-3.4437735860833336
mp-560303,BaCa2C2(O3F)2,-3.0500800063369238
mp-1214453,BaCa2Cu3O5,-1.926234921931817
mp-757074,BaCa2I6,-1.6677326816666669
mp-1103554,BaCa2Mg(SiO4)2,-3.3991471467857144
mp-1214597,BaCa2WN4,-1.2233644894712494
mp-1183332,BaCa3,0.0317841393749998
mvc-14842,BaCa3(CuN2)2,-0.4549692039519996
mp-1019541,BaCa3O4,-3.0178875834375
mp-1229190,BaCa3Zr16(PO4)24,-3.268675688599491
mp-606338,BaCa4(CoN2)2,-0.7809525151836361
mp-569603,BaCa4(CuN2)2,-0.7631429174563629
mp-1041316,BaCaAgF7,-3.031981985083
mp-18065,BaCaAlF7,-4.1223920935830005
mp-1019542,BaCaB2O5,-3.2209897092592588
mp-694911,BaCaBO3F,-3.4623881891580948
mp-1041345,BaCaBiF7,-3.607812875833
mp-696695,BaCaCO3,-2.1156403625
mp-1093940,BaCaCd2,1.068425583125
mp-604812,BaCaCo4O7,-1.936973794134616
mp-1047947,BaCaCoF7,-3.4214282455830003
mp-1044468,BaCaCr4O8,-2.2804828469642864
mp-560577,BaCaCrF7,-3.783183198332999
mp-1041323,BaCaCuF7,-3.209485471833
mp-1228037,BaCaDy2F10,-3.9346139278142855
mp-1228404,BaCaFe2Co2O7,-1.7950877250961548
mp-1047946,BaCaFeF7,-3.6424525730829993
mp-8416,BaCaGaF7,-3.755069271083
mp-16252,BaCaGe,-0.5827891433333333
mp-1097359,BaCaHg2,0.813783880625
mp-753809,BaCaI4,-1.6950206445833331
mp-1096623,BaCaIn2,1.219385241458333
mp-39886,BaCaLaBiO6,-2.6337599060000003
mp-1228137,BaCaLu2F10,-4.3954288095999985
mp-1036305,BaCaMg14O16,-2.865378970546875
mp-1095925,BaCaMg2,1.400510345625
mp-1038013,BaCaMg30O32,-2.9629984241796867
mp-1044544,BaCaMn4O8,-2.226028600095713
mp-1047948,BaCaMnF7,-3.632842093679
mp-1047929,BaCaMoF7,-3.6504461915830007
mp-1047971,BaCaNiF7,-3.2331821373330003
mp-756930,BaCaO2,-3.02357921375
mp-1183285,BaCaO3,-2.2916024642500004
mp-733968,BaCaP2(HO4)2,-2.8427017077875507