task_id,composition,formation_energy_per_atom
mp-686109,Cu23(Sb4S13)2,-0.5130469634320171
mp-1225855,Cu23PdN8,0.2058502603425003
mp-1196830,Cu24Ag9Pb26(Cl31O24)2,-0.9953607867581062
mp-1232365,Cu27CO,0.2135450879310339
mp-684606,Cu27Se20,-0.07518476131648932
mp-532348,Cu29(Ag6As7)2,0.040633441272726924
mp-685189,Cu29Se19,-0.03755019402669232
mp-1104602,Cu2Ag(SO5)2,-1.3288304633749997
mp-1104157,Cu2Ag(SeO5)2,-0.8370510146458324
mp-4362,Cu2Ag2O3,-0.6688515398214291
mp-1225986,Cu2Ag5Se4NO15,-0.928582650944629
mp-1093618,Cu2AgAu,1.6556758075000004
mp-1225935,Cu2AgBiPbS4,-0.57203369375
mp-1213188,Cu2AgH(SO5)2,-1.4064112187028115
mp-1213178,Cu2AgH(SeO5)2,-0.9377852567692192
mp-1225882,Cu2AgO4,-0.7383788207142855
mp-1105189,Cu2AgPS4,-0.5734672010491079
mp-7474,Cu2As,0.020035018333333692
mp-1198068,Cu2As(HO3)2,-1.2011212202036363
mp-554298,Cu2As2O7,-1.3618821503409082
mp-1213371,Cu2As2PbO10,-1.1821805474999991
mp-560845,Cu2As4S3Cl2,-0.5525178021552274
mp-1200181,Cu2As9P3S9I2,-0.418168171319644
mp-617283,Cu2AsClO4,-1.1907920504074996
mvc-15744,Cu2B2C,0.6512913475833336
mp-1225826,Cu2B3Ir4,-0.17984252444444515
mp-558794,Cu2BH5O6,-1.4793818508761905
mp-1225851,Cu2Bi3Sb3O14,-1.6566019794318174
mp-652196,Cu2Bi4Pb2S9,-0.6997921545036773
mp-680461,Cu2Bi8Pb2S15,-0.7164928172569447
mp-1226431,Cu2Bi8Pb3Se3S13,-0.6380194137446125
mp-669445,Cu2Bi8Pb6S19,-0.7530430842053566
mp-669361,Cu2BiAsO6,-1.4025809615
mp-617247,Cu2BiPO6,-1.7709540652142857
mp-1225798,Cu2BrCl,-0.28053775081499976
mp-1095679,Cu2BrO3,-0.566612240625
mp-1199787,Cu2C3NCl5,0.055077139779091316
mp-1182566,Cu2C4NCl3,0.9430099092840004
mp-1182542,Cu2C4NCl5,-0.019854562806666348
mp-1198809,Cu2CO5,-1.0950817146875007
mp-23516,Cu2Cl2O,-0.8997131305540002
mp-1190990,Cu2ClO3,-0.6643976353350004
mp-1096932,Cu2GeI6,0.4837446205555559
mp-9600,Cu2GeO4,-1.3601215657142849
mp-604273,Cu2GeP2(H5O7)2,-1.7021224414822662
mp-1147769,Cu2GeS4,-0.57606301875
mvc-13140,Cu2GeSe4,-0.16608024419642828
mp-12806,Cu2GeTe3,-0.094960320833333
mp-555729,Cu2H10C6S3N4,-0.23547525761629914
mp-1202278,Cu2H12C4Br3N,-0.3273248235600005
mp-1196454,Cu2H13C2S2NO11,-1.1754108232682259
mp-774726,Cu2H26C6S7N12O5,-0.6825366058597847
mp-504588,Cu2H2CO5,-1.2926149382239998
mp-734045,Cu2H2Se2O7,-1.1554315937059616
mp-1201073,Cu2H3ClO3,-1.1198919810133343
mp-766274,Cu2H3NO6,-1.067394465686667
mp-686268,Cu2H4C4N3O,0.2504080324735704
mp-1192779,Cu2H4CO5,-1.1349737724566669
mp-697660,Cu2H6C3N4O,-0.3273758800775006
mp-1202476,Cu2H6Pb5C(SO7)3,-1.6989492656291456
mp-6820,Cu2Hg2SF6,-1.5952365719275001
mp-10952,Cu2HgGeS4,-0.6183922039062506
mp-12855,Cu2HgGeSe4,-0.24498448617187485
mp-23353,Cu2HgI4,-0.2368778542857142
mp-1197496,Cu2I4N2O,0.38188627266555497
mp-1225799,Cu2IBr,0.01299533750000048
mp-1095489,Cu2IO3,-0.7025407231249995
mp-571054,Cu2Mo3Se4,-0.36952146548611137
mp-1200069,Cu2MoSeO7,-1.3933122758948868
mp-1147700,Cu2N,0.3452479258733341
mp-1213046,Cu2NO6,-0.7574012338755559
mp-761502,Cu2Ni11O13,-0.8841670902403842
mp-771115,Cu2NiO4,-0.7629881378571426
mp-1225788,Cu2NiSb,0.13927398374999989
mp-4367,Cu2NiSn,0.03778289875000063
mp-1225853,Cu2NiSn3S8,-0.7251278526785713
mp-1225946,Cu2NiSnO4,-1.2633759612499995
mp-1225885,Cu2NiSnSe4,-0.2509130749218751
mp-1225905,Cu2NiTeO6,-1.1352408854999994
mp-771359,Cu2O3,-0.8429194447500009
mp-3638,Cu2P2O7,-2.0359709448214285
mp-582882,Cu2P2PbO8,-2.0333533607142846
mp-26532,Cu2P3O10,-2.0636726955952374
mp-28034,Cu2P7,-0.1015671366666666
mp-683899,Cu2P8Se3Br2,-0.17748281252827386
mp-570817,Cu2P8Se3I2,-0.1357076198616075
mp-1198442,Cu2PC2SO13,-0.5841062661818611
mp-510654,Cu2PHO5,-1.6871829541125396
mp-17281,Cu2PO4,-1.750854042091836
mp-504476,Cu2PO4F,-1.8633966851041064
mp-1203235,Cu2PO5,-1.6976242413616074
mp-1001022,Cu2PPd2,-0.2757799194285724
mp-579463,Cu2Pb(SeO3)3,-1.2271562171354171
mp-29396,Cu2PbO2,-0.9887987294999996
mp-1193833,Cu2PbSe2(ClO3)2,-1.2082353720159615
mp-1212900,Cu2Pd3Se4,-0.23948811604166706
mp-862256,Cu2PdAu,-0.114231835
mp-581212,Cu2S,-0.34885357413194384
mp-28491,Cu2SO4,-1.3757561555803568
mp-4386,Cu2SO5,-1.4494636837890624
mp-622628,Cu2SbO5,-0.1540081664062498
mp-560561,Cu2SeO4,-1.0485472794419641
mp-1120816,Cu2SeS3,-0.36030880763020906
mp-1200668,Cu2Si2Pb7(S2O13)2,-1.9823900267987808
mp-1213451,Cu2Si3H24C8(N10F9)2,-1.2806963486120002
mp-1106310,Cu2SiHgS4,-0.7166252901562506
mp-1080131,Cu2SiHgTe4,-0.10869008750000032
mp-1078922,Cu2SiNiS4,-0.4831729345312503
mp-555818,Cu2SiPbS4,-0.8005362832812501
mp-15895,Cu2SiS3,-0.7744295928645831
mp-15896,Cu2SiSe3,-0.28286189263020844
mp-1225810,Cu2SiTe3,-0.07340513166666678
mp-1225845,Cu2Sn2Pd,-0.09298968000000016
mp-1025467,Cu2SnHgS4,-0.6241558639062497
mp-16566,Cu2SnHgSe4,-0.2739367249218749
mp-1079012,Cu2SnHgTe4,-0.15198359937499986
mp-10519,Cu2SnS3,-0.6616753136979169
mvc-13133,Cu2SnSe4,-0.1854800327678571
mp-13089,Cu2SnTe3,-0.13826038916666702
mp-542807,Cu2Te2Br2O5,-1.0586352460227266
mp-581276,Cu2Te2Cl2O5,-1.225826843888182
mp-1192807,Cu2Te2Pb(ClO3)2,-1.3303617283861535
mp-772354,Cu2W2O7,-1.6689893912500005
mp-505402,Cu2WO4,-1.449693709285714
mp-8976,Cu2WS4,-0.8408664894642855
mp-554614,Cu3(AsO4)2,-1.3120608226923072
mp-1226691,Cu3(BO3)2,-1.7607889509090904
mp-675786,Cu3(BiI4)4,-0.34449903913043456
mp-1103484,Cu3(BrN)4,1.38515122277091
mp-1192764,Cu3(CO4)2,-1.3252513309615386
mvc-14096,Cu3(GeO3)4,-1.5640175097368427
mp-1193512,Cu3(I3O10)2,-0.7071185653448272
mp-1181714,Cu3(IN)4,0.5015655909527278
mp-675781,Cu3(Mo3S4)4,-0.9395601827419358
mp-1043118,Cu3(MoO3)4,-1.7270159549999988
mp-1192830,Cu3(MoO5)2,-1.4512852765000002
mp-1043320,Cu3(NiO3)4,-0.6222815602631583
mp-760179,Cu3(OF)2,-1.2825212335542864
mp-673105,Cu3(P2O7)2,-2.0353989269557817
mp-4093,Cu3(PO4)2,-1.8787125680219767
mp-1042691,Cu3(SbO3)4,-1.5454585018421056
mvc-13015,Cu3(SnO3)4,-1.6101927697368417
mp-755032,Cu3(TeO5)2,-1.0932087174999991
mp-1043077,Cu3(WO3)4,-1.6739100102631574
mp-1225808,Cu31PdN8,0.2168303740239999
mp-685126,Cu39S20,-0.21156474900423802
mp-1184011,Cu3Ag,0.08995771750000038
mp-1196623,Cu3Ag2Bi7Pb3S16,-0.6780246662903225
mp-1195349,Cu3Ag2P2O9,-1.617117782689732
mp-1225783,Cu3Ag3(PS4)2,-0.5517905729241077
mp-1204064,Cu3Ag5(PO4)4,-1.6661867892346938
mp-1966,Cu3As,0.019124477812500373
mp-605172,Cu3As2H16C16Br3(NO)2,-0.2341860909131813
mp-721072,Cu3As2H2PbO10,-1.3824896910966658
mp-1181754,Cu3As4,0.11511327071428668
mp-1147541,Cu3As4(OF)6,-1.7052262170863164
mp-542553,Cu3As4H18C8Br3(NO2)2,-0.4500588476171417
mp-542554,Cu3As4H18C8I3(NO2)2,-0.4285725967838103
mp-1102432,Cu3AsO7,-1.0398316585227272
mp-504884,Cu3AsS3,-0.4520336899553571
mp-2258,Cu3Au,-0.03495492249999943
mp-560136,Cu3B4Pb2O11,-2.012522935270833
mp-1105186,Cu3B5Pt9,-0.21841298431372488
mp-1203923,Cu3B6H2O13,-2.1479516547287503
mp-554590,Cu3B7BrO13,-2.2630823138715286
mp-1213325,Cu3B7ClO13,-2.3063218679656945
mp-651682,Cu3B7IO13,-2.2430755449131947
mp-1213419,Cu3BO5,-1.4360813431018518
mp-1191259,Cu3Bi2(PO7)2,-1.5306371557993206
mp-1226093,Cu3Bi2S3Br2,-0.5132651494687501
mp-680135,Cu3Bi7(PbS5)3,-0.7060317862834832
mp-607291,Cu3BiS3,-0.4889758853124998
mp-628637,Cu3BiSe2BrO8,-1.1613576208125
mp-505104,Cu3BiSe2ClO8,-1.2151433360298332
mp-669425,Cu3BiSe2IO8,-1.1313042464791654
mp-572778,Cu3BiTe2ClO8,-1.278815098217333
mp-1183968,Cu3Cl,0.18082859418500075
mp-1183996,Cu3F,-0.2252004327974997
mp-19724,Cu3Ge,-0.007904431249999178
mp-1202152,Cu3Ge(PO5)2,-1.905419787299107
mp-1204488,Cu3H10(C4O7)2,-1.0440647319628569
mp-23733,Cu3H2(CO4)2,-1.3660110189826669
mp-643793,Cu3H2(OF2)2,-1.5602567685909094
mp-697994,Cu3H4SO8,-1.3425506967839065
mp-1181685,Cu3H4SeO8,-0.9693562215983588
mp-1213584,Cu3H8S4(NO8)2,-1.4465559268172723
mp-1194777,Cu3Hg2(Te3O8)2,-1.2712387322222214
mp-1199983,Cu3Mo(HO2)4,-1.3173364057487502
mp-743820,Cu3Mo2(HO5)2,-1.5016053417494115
mp-1193763,Cu3Mo2O9,-1.5423183572321415
mp-1204081,Cu3MoH24C8S3I3N2O,-0.3930736992239449
mp-1213388,Cu3MoSO9,-1.5291971284151769
mp-1933,Cu3N,0.18983208690500053
mp-1101883,Cu3N4Cl4O,1.1793476730158339
mp-1147701,Cu3NF3,-0.8891086058499995
mp-1225698,Cu3Ni,0.05051322500000044
mp-1226082,Cu3Ni(CO5)2,-1.0764294443749989
mp-566425,Cu3NiH6(ClO3)2,-1.1533875480966662
mp-1181468,Cu3NiHgSe4,-0.10661563826388863
mp-1204774,Cu3NiP2O9,-1.7644472618690477
mp-1022728,Cu3O2,-0.6094676764999996
mp-1178476,Cu3O4,-0.8427837885714281
mp-997504,Cu3OF5,-1.6229015674666654
mp-7463,Cu3P,-0.020651134285714082
mp-1225791,Cu3P(SeS)2,-0.3523369046819198
mp-679930,Cu3P15I2,-0.08761247673214215
mp-1204687,Cu3P2H2O9,-1.7743452867359828
mp-1204188,Cu3P2NO6,-0.9737650857638102
mp-1202203,Cu3P4(SBr)3,-0.4161972029429945
mp-559307,Cu3P4(SI)3,-0.3498075965968413
mp-1197453,Cu3P4C4(NO6)2,-1.088450179233257
mp-1202993,Cu3P4Pb3O16,-2.1249706589835164
mp-565597,Cu3P4S4I3,-0.4080484846301025
mp-680446,Cu3P4Se4Br3,-0.21900458163903075
mp-559558,Cu3P8(S2Cl)3,-0.5844478995648927
mp-1200788,Cu3P8(Se2Br)3,-0.1833996451852677
mp-1204573,Cu3P8(Se2I)3,-0.12729987818526708
mp-1203515,Cu3PO7,-1.3690812799675327
mp-3934,Cu3PS4,-0.6034655441741075
mp-5756,Cu3PSe4,-0.1433434683147321
mp-1202064,Cu3Pb2Se2(NO7)2,-1.1803685467151086
mp-1225772,Cu3Pd13S7,-0.4553503164538041
mp-1225751,Cu3Pd2,-0.10926966099999973
mp-1225771,Cu3PdAu4,-0.06786374374999983
mp-1206517,Cu3PdN,0.030567821524000036
mp-12086,Cu3Pt,-0.13689798999999958
mp-1184028,Cu3Rh,0.03848273000000102
mp-1207194,Cu3RhN,0.2533874395240005
mp-1184026,Cu3Ru,0.27462009125000103
mp-1207091,Cu3RuN,0.5096541505240004
mp-1202614,Cu3SO8,-1.1369214690885407
mp-20900,Cu3Sb,0.07805162375000041
mp-780043,Cu3Sb(PO4)4,-2.0024373138988087
mp-1232328,Cu3Sb4(OF)6,-1.8246439670863162
mp-17691,Cu3SbS3,-0.4800093738839293
mp-29476,Cu3SbSe3,-0.1310367461830353
mp-20683,Cu3Se2,-0.13507315343749934
mp-557136,Cu3Se2(ClO3)2,-1.0532998393236537
mp-867317,Cu3Si,-0.05721293750000012
mp-581786,Cu3Sn,0.004123832500000368
mp-1178492,Cu3Sn(PO4)4,-2.0590986788988097
mp-645435,Cu3Sn4PbO12,-1.6414665497499996
mp-1181705,Cu3SnAu,0.09739849600000028
mp-1183984,Cu3Te,0.14975532250000034
mp-1225676,Cu3Te2,-0.035703665999999856
mp-572313,Cu3Te2(BrO3)2,-1.0441312251923085
mp-21861,Cu3TeO6,-1.1103660412499992
mp-1199337,Cu3TeO8,-0.7817177139583329
mp-1198524,Cu3TePbO7,-1.2214699753124991
mp-1194267,Cu3TePbO8,-1.1135999611538456
mp-557510,Cu3TeS3Cl,-0.538419270680937
mp-1183970,Cu3W,0.4415204225
mp-565259,Cu3WO6,-1.364287367
mp-27124,Cu4(BiS2)5,-0.627195225032896
mp-26742,Cu4(PO4)3,-1.8644958237593992
mp-1213530,Cu41Sn11,0.0158607120192318
mp-14455,Cu4Ag(AsO4)3,-1.2793561912500002
mp-1202558,Cu4As3PbO12,-1.3920838925000012
mp-1213317,Cu4AsClO6,-1.1449381013133326
mp-1225761,Cu4Au,0.067837866
mp-1225836,Cu4Bi3Pb(SeO)4,-0.8549193027734381
mp-559551,Cu4Bi4S9,-0.6205801708272063
mp-672295,Cu4Bi5PbS11,-0.6278244740327393
mp-541149,Cu4Bi7S12,-0.6078484275543476
mp-1225710,Cu4Br3Cl,-0.17747560665750006
mp-1193718,Cu4Br6N4O,0.7441610482820001
mp-1225692,Cu4BrCl3,-0.3883199974725001
mp-565590,Cu4GeS4,-0.5378003293055558
mp-707201,Cu4H10SO12,-1.267542807602314
mp-1198506,Cu4H18C6S3I4,-0.31925377828135804
mp-691038,Cu4H24C13N7Cl,-0.17585600031734616
mp-601817,Cu4H3C2N5,-0.06481659573285624
mp-698171,Cu4H7SO11,-1.1031111003544565
mp-1225709,Cu4I3Br,0.04763909500000008
mp-1225703,Cu4I3Cl,-0.04907671915749967
mp-1225726,Cu4IBr3,-0.027452866249999985
mp-650741,Cu4Mo5O17,-1.691435779086539
mp-1478,Cu4O3,-0.8134225769642859
mp-753717,Cu4OF6,-1.5857838289445452
mp-21730,Cu4P2O9,-1.7501708103690476
mp-753552,Cu4PtO5,-0.9133921041250004
mp-1080109,Cu4S3N,0.2502013431790626
mp-1197335,Cu4SO10,-1.0241545792708326
mp-1204253,Cu4Se3O10,-1.089020069200368
mp-1225830,Cu4Si(GeO4)3,-1.7544271769999995
mp-557274,Cu4Si2NiS7,-0.7557216548883929
mp-1201527,Cu4Si4Pb4C4ClO28,-1.8026652351835548
mp-28995,Cu4SiP8,-0.1306017543956054
mp-685340,Cu4Sn15S32,-0.7218544507843139
mp-34126,Cu4SnP10,-0.1253647437619037
mp-504536,Cu4SnS4,-0.533401644027778
mp-558364,Cu4Te5(ClO3)4,-1.2657501599216006
mp-1181548,Cu4W(SCl)4,-0.524596778022308
mp-27589,Cu5(PO5)2,-1.6605835251050411
mp-1197383,Cu5(PO6)2,-1.490445367067669
mp-1200185,Cu5(Si2O7)2,-2.042655732717392
mp-504746,Cu5As2,0.04968883428571453
mp-1213314,Cu5As2(HO3)4,-1.2363230688904352
mp-559620,Cu5Bi2(B2O7)2,-1.8317497921666663
mp-1225722,Cu5Ge2,0.06492036142857162
mp-1226698,Cu5H8(ClO5)2,-1.0121733155191999
mp-1045868,Cu5O7,-0.6928325519791662
mp-26796,Cu5P3O13,-1.7872847048894571
mp-554163,Cu5Se2(ClO4)2,-1.0345114537475002
mp-1201155,Cu5Se4(ClO6)2,-1.0795927356910875
mp-1225822,Cu5SeCl5O4,-0.9619405586595842
mp-641710,Cu5Si(SbO6)2,-1.5625621040625
mp-510418,Cu5Si2S7,-0.7670487591741078
mp-709325,Cu5Si4(HO7)2,-1.9990620367896
mp-1226321,Cu5Sn(BO5)2,-1.6021391228240742
mp-1103757,Cu5Sn2Se7,-0.2833206107254469
mp-1103821,Cu5Sn2Te7,-0.1436014342857145
mp-568524,Cu5Sn4,-0.021065071111110528
mp-1213626,Cu64O,0.005200312442307747
mp-651706,Cu6AgBi12PbS22,-0.6304901676041665
mp-28717,Cu6As4S9,-0.5164258287664476
mp-1225700,Cu6AuN2,0.1602217494711111
mp-1213474,Cu6Bi(AsO7)3,-0.8154584847177421
mp-675590,Cu6BiS6,-0.4653172045673076
mp-1199896,Cu6BiSe6,-0.16021009165865344
mp-557225,Cu6GeWS8,-0.7247477957812505
mp-6287,Cu6Hg3(AsS3)4,-0.5024531659500002
mp-623575,Cu6Mo5O18,-1.5826601309482762
mp-1205281,Cu6MoC20S4N5Cl9,1.0793288211668886
mp-1147668,Cu6NiO6,-0.6428479359615392
mp-760939,Cu6OF11,-1.7159889510744446
mp-554627,Cu6PS5Br,-0.4928384294196431
mp-1227547,Cu6Pb2Se6N2O27,-1.0590460427923838
mp-643203,Cu6PbSe2Cl5O8,-1.0783442135676131
mp-1225725,Cu6PdN2,0.10725923058222264
mp-1225809,Cu6SbAs,0.11039277593750008
mp-1233,Cu6Sn5,-0.016561408181817425
mp-1225733,Cu6SnGe,0.010328148750001098
mp-1147658,Cu6SnO8,-1.173466579666666
mp-1226194,Cu6SnWS8,-0.6666230064062502
mp-1226362,Cu6Te2Mo2H2Cl4O15,-1.3477191506138704
mp-554606,Cu7As6(PbO12)2,-1.4211765058974368
mp-540665,Cu7As6Se13,-0.06033240429687554
mp-554511,Cu7P12S9Cl7,-0.6162749682884794
mp-1196216,Cu7PS6,-0.4579543538584179
mp-29823,Cu7PSe6,-0.0768698645503818
mp-624299,Cu7S4,-0.3948843728409092
mp-1226184,Cu7S4N,0.05534622678083364
mp-1195946,Cu7Se2(Cl3O4)2,-0.9944885717064132
mp-1206157,Cu7Si2,-0.008679575555554998
mp-1213668,Cu7Si6,2.7448819561538462
mp-1226201,Cu7Te2(SO10)2,-1.2320500723588708
mp-624307,Cu7Te4,0.09781314500000024
mp-1227576,Cu81Sn22,0.016482380097087773
mp-608239,Cu8Ge5C4(S2N)8,-0.08362184595219585
mp-5546,Cu8GeS6,-0.4340957412916671
mp-570393,Cu8GeSe6,-0.10949862610416657
mp-676599,Cu8NO11,-0.8896609078064983
mp-1213576,Cu8NiSb3S13N6,0.3707840742873384
mp-760084,Cu8O7,-0.8413720065833331
mp-13872,Cu8SiS6,-0.5064712572916666
mp-10428,Cu8SiSe6,-0.12701029477083334
mp-26304,Cu9(PO4)8,-1.87991186361516
mp-740764,Cu9P4(HO10)2,-1.6855207085946111
mp-685056,Cu9S16,0.034130946999999884
mp-1225890,Cu9Sb(AsS6)2,-0.5421666572395836
mp-558647,Cu9Se4(Cl3O7)2,-1.0268209754980304
mp-673655,Cu9Se5,-0.04267975199776787
mp-673255,Cu9Se8,-0.12924255639705878
mp-1195958,CuAg(AsO4)2,-1.0480958662499995
mp-1226080,CuAg10(PbO4)3,-0.7434585848076929
mp-1202008,CuAg2(NO3)4,-0.8370030252378948
mp-1213222,CuAg2(PO3)4,-2.107120735977443
mp-1213198,CuAg2P2O7,-1.8528642198363088
mp-984351,CuAg3,0.08560406625000018
mp-644883,CuAg3S2,-0.27899685302083377
mp-555515,CuAg4TeO6,-0.8112586152083328
mp-556402,CuAg5As3O11,-1.1250492006874993
mp-1229314,CuAg64Hg3(As4S15)4,-0.37082394516493067
mp-653450,CuAg7As4ClO14,-1.1136482733614816
mp-1213465,CuAgAs2H3O8,-1.3435587518906658
mp-1188802,CuAgF3,-1.5791394782139998
mp-1213114,CuAgGeSe3,-0.2116410417968749
mp-996975,CuAgO2,-0.735409598125
mp-608358,CuAgPO4,-1.6981302503061215
mp-1095713,CuAgPd2,2.1585995875
mp-8911,CuAgS,-0.3290004913541669
mp-1225652,CuAgTe,0.10642801666666676
mp-2977,CuAgTe2,-0.00227024000000009
mp-12070,CuAs,0.05218974250000041
mp-1197719,CuAs12P4S12Br,-0.4491131767440474
mp-1197298,CuAs12P4S12Cl,-0.4763776851027141
mp-21859,CuAs2,0.08706481666666714
mp-677164,CuAs2Pb6Cl7O6,-1.5528225109236364
mp-653930,CuAs2Pb8Cl5O9,-1.558578019702
mp-21560,CuAs2PbO7,-1.5809743928409097
mp-556926,CuAs2S4(O2F3)4,-2.1003596181677766
mp-559978,CuAs2S8N8(OF7)4,-1.5886549982325495
mp-541087,CuAs4(H5O8)2,-1.452596906329031
mp-558199,CuAs4S3Cl,-0.506660894771945
mp-1198103,CuAs7PS7Br,-0.4560015123870789
mp-1203697,CuAs7PS7Cl,-0.507601031843551
mp-31237,CuAsF7,-2.23433339537
mp-1202551,CuAsH3O5,-1.3734971870859989
mp-1178368,CuAsO3,-1.2877306427500002
mp-557871,CuAsPbO4,-1.5155954757142849
mp-1200529,CuAsPbO5,-1.4310254170312504
mp-628643,CuAsPbS3,-0.6398703541145837
mp-1078511,CuAsPtS2,-0.6486210536250006
mp-5305,CuAsS,-0.39709729468749977
mp-1102382,CuAsSe,-0.12932113119791566
mp-29643,CuAsSe2,-0.02853639054687473
mp-522,CuAu,-0.04505108499999988
mp-2103,CuAu3,-0.015361892500000085
mp-1225742,CuAu4,0.0042928780000004
mp-1232366,CuAuClO2,-0.6008852471520001
mp-28376,CuAuF5,-1.560143858707143
mp-996978,CuAuO2,-0.7035302931249996
mp-30151,CuAuSe4,-0.07982258739583396
mp-13589,CuB(CN)4,0.05965465388133424
mp-568532,CuB2(CN)8,0.1862877919803503
mp-554812,CuB2(PbO3)2,-2.0460713482575765
mp-555093,CuB4O7,-2.466218347534722
mp-1181765,CuB5,0.3820908549652782
mp-28896,CuBIr,-0.1786701972222211
mp-1096940,CuBO2,-1.372082139791667
mp-1184042,CuBO3,-0.6804440060833337
mp-983565,CuBSe2,-0.11181966596354176
mp-569792,CuBi,0.11339471500000008
mp-755760,CuBi(PO4)2,-2.108317580357142
mp-683998,CuBi(PSe3)2,-0.16489006183482147
mp-615173,CuBi(WO4)2,-1.87027343625
mp-556303,CuBi2(SeO3)4,-1.3729006510197377
mp-1213034,CuBi2Se2O,-0.11530288640625012
mp-1202656,CuBi2Se3O11,-1.2598509755606613
mp-1213110,CuBi2Te2O,-0.17095688687499985
mp-542302,CuBi3PbS6,-0.7115210917613637
mp-642316,CuBi5PbS9,-0.7201891029101564
mp-1225738,CuBi5S8,-0.6982310105357143
mp-997054,CuBiO2,-1.2692590493749991
mp-1184051,CuBiO3,-1.1062160957500011
mp-1041088,CuBiO4,-0.9123770085416664
mp-624191,CuBiPbS3,-0.6858636124479176
mp-865018,CuBiPtS3,-0.7028617699479168
mp-22982,CuBiS2,-0.6091734976562506
mp-554238,CuBiSCl2,-0.9387168691165002
mp-1225678,CuBiSe2,-0.16994042304687484
mp-23116,CuBiSeO,-0.8395598262109374
mp-545369,CuBiTeO,-0.7369001890625002
mp-23219,CuBr2,-0.3119106866666665
mp-1080538,CuBr4(NO)2,1.0388720114155556
mp-996993,CuBrO2,-0.5619871781249994
mp-1105650,CuC2(NCl2)2,0.5827697033000006
mp-1181573,CuC2(NO3)2,-0.9335234127054548
mp-1197218,CuC2(SN2)2,0.9914007802616668
mp-555656,CuC2S2(OF)6,-1.7777705988391177
mp-556238,CuC3(OF)3,-1.4739881421069996
mp-1198330,CuC32(NF2)8,-0.5813611292645616
mp-1192074,CuC3N2O5,-0.7237475852054548
mp-1182274,CuC4(NO2)4,-0.4432621676188237
mp-1182624,CuC4(NO5)2,-0.93124339278
mp-1192156,CuC4S4(NO6)2,-0.42787869308739096
mp-1213666,CuC5O8,-0.3241335533928569
mp-1199635,CuC8(NCl2)2,1.2689551356466675
mp-1189777,CuC8S4N4Cl,0.6774014478316661
mp-1204111,CuC9S2NF10,-0.5935441883110867
mp-562090,CuCClO,-0.8843722683150004
mp-35308,CuCN,0.2389047096233329
mp-1178374,CuCO3,-1.3659018415000006
mp-559044,CuCSN,-0.10554207379812564
mp-30999,CuCl2,-0.8848614321733335
mp-1191430,CuCl3O2,-0.1277171928799999
mp-32829,CuCl4,-0.4402186626080001
mp-29279,CuClF10,-1.100393475013333
mp-1181633,CuClO,-0.8094404287949993
mp-1229,CuF2,-1.814958065793334
mp-1225680,CuGe2P3,0.0449727039285707
mp-1025440,CuGe3,0.3060709700000004
mp-21727,CuGe5Pb3O14,-1.8938692733695648
mp-1096949,CuGeI3,-0.013716932999999544
mp-1202570,CuGeO3,-1.608570341125
mp-1225673,CuGePSe,-0.14942093393415146
mp-867917,CuGeRh2,-0.3738936412500005
mp-24093,CuH,0.06154782819000015
mp-558144,CuH10(CO4)2,-1.2781421185095232
mp-1213590,CuH10(ClO6)3,-0.8092937382858341
mp-601396,CuH10C2(N2O5)2,-0.9527988054896293
mp-1203110,CuH10C2(NCl2)2,-0.6857694058684206
mp-561081,CuH10C2(NO)8,-0.745524118542759
mp-1196039,CuH10SO9,-1.4547724974529763
mp-1191835,CuH10Se2(NO5)2,-0.9582951868258992
mp-863429,CuH10SeO9,-1.2747014588592265
mp-698276,CuH11C4(NO5)2,-1.1320064473957134
mp-698401,CuH11C5NO6,-0.8355071378520827
mp-1195736,CuH11C6NO5,-0.7597719181645832
mp-740737,CuH12(BrO6)2,-0.6221129899422222
mp-600207,CuH12(C2N5)2,-0.0800809177681477
mp-634716,CuH12(IN)4,-0.4995387968076185
mp-556842,CuH12(N5O4)2,-0.6110815015238709
mp-721035,CuH12(NO)6,-0.1274451687587998
mp-1200215,CuH12(NO6)2,-1.2060939010444442
mp-24103,CuH12Br4(NO)2,-0.8210755681285707