task_id,composition,formation_energy_per_atom
mp-6493,CaMgSiO4,-3.3803526350000004
mp-867266,CaMgTl2,-0.2739687793750001
mp-720999,CaMgUH24C3O23,-1.7866678604599997
mp-19696,CaMgV2O7,-2.8026970824999995
mp-1214024,CaMgVO5,-2.6680156023437496
mp-1227155,CaMgZn,-0.16231057499999993
mp-1095876,CaMgZn2,1.219625130625
mp-1043484,CaMn(GeO3)2,-2.462892739096
mp-1045779,CaMn(PO3)4,-2.810725301779524
mp-1043634,CaMn(Si2O5)2,-3.16285394927875
mp-19446,CaMn(SiO3)2,-3.129462570596
mp-1080217,CaMn12O24,-1.8976252049735127
mp-1003318,CaMn16O32,-1.9102096227114296
mvc-11957,CaMn2(P2O7)2,-2.659788079785306
mp-1048915,CaMn2(PO4)2,-2.8102214825927487
mp-1044192,CaMn2(PO5)2,-2.4594905537470484
mp-1154719,CaMn2(SiO3)4,-2.940331768127368
mp-1227954,CaMn25FeSi4SbO44,-2.2530077025197346
mp-1194089,CaMn28,0.07116434629310514
mp-19548,CaMn2Be3(SiO4)3,-3.0596053273533337
mp-1042685,CaMn2CoO7,-1.7953493789245438
mp-1227234,CaMn2Cu3(RuO6)2,-1.6324227842210006
mvc-12753,CaMn2F10,-2.8661894854861534
mp-18844,CaMn2O4,-2.4552450377742865
mvc-12542,CaMn2O5,-2.10854242008375
mvc-10115,CaMn2P2O9,-2.688320621961122
mvc-14455,CaMn2S5,-1.1515781909765632
mp-1227327,CaMn2V4CuO12,-2.3102121677209992
mp-1044590,CaMn3(P2O7)2,-2.7542875339296105
mp-1227263,CaMn3Cu3RuO12,-1.6802971625190004
mp-1178473,CaMn3O4,-2.296872249422501
mp-566229,CaMn3O6,-2.287723859288
mp-1044349,CaMn3O7,-1.8598827362845456
mp-1047886,CaMn3P3O13,-2.6203385921529287
mp-1106307,CaMn3V4O12,-2.434224606769
mp-1195724,CaMn3Zn(SiO3)5,-2.917391104965201
mp-510570,CaMn4(CuO4)3,-1.7364027013169996
mp-566849,CaMn4(SiO3)5,-2.9447743910036004
mp-1042706,CaMn4O6,-2.2511782308036365
mp-1003483,CaMn4O8,-2.173217828564615
mp-1047836,CaMn4O9,-1.7575048944707157
mp-1046067,CaMn5O7,-2.201669245849999
mp-565446,CaMn6SiO12,-2.3987214760379985
mp-541644,CaMn7O12,-2.1471086624609983
mp-767029,CaMn7O8,-2.132994464638749
mp-1003319,CaMn8O16,-2.0071418632072007
mp-1199709,CaMnAl4SiP3(HO4)5,-2.776832185371102
mp-780912,CaMnAs2(H3O5)2,-1.843602451384
mp-1042777,CaMnAs2O7,-2.219046631791819
mvc-5587,CaMnAsO5,-2.34958106183875
mp-565633,CaMnB2O5,-2.896933223532592
mp-1182751,CaMnBe2Si5O17,-2.4722594797965374
mp-611153,CaMnBi2,-0.22072015562499914
mp-1227254,CaMnCu3(RuO4)3,-1.561628528923
mvc-14349,CaMnF4,-3.585398633036666
mp-557426,CaMnF5,-3.4281699842014284
mvc-15847,CaMnF6,-3.21169356695
mp-1227209,CaMnFeBiO6,-2.155973678096001
mp-1227251,CaMnFeGe2,-0.3370304615000002
mvc-12807,CaMnFeO5,-1.9692101102762496
mp-20235,CaMnGe,-0.34572929583333273
mp-1214074,CaMnGeO4,-2.5864211794228567
mvc-10912,CaMnIrO6,-1.6424016934399992
mp-1043125,CaMnNiP2O9,-2.478963924749693
mp-1003322,CaMnO2,-2.6376849352400003
mp-19201,CaMnO3,-2.509350712442
mp-18743,CaMnP2O7,-2.9201300033177926
mp-1227051,CaMnS2,-1.6236466714062503
mp-1205343,CaMnSb2,-0.4107189856249995
mp-1227053,CaMnSe2,-1.161626203671875
mp-21096,CaMnSi,-0.3626285658333319
mvc-12020,CaMnSi2O7,-2.8743113779281826
mp-25699,CaMnSiHO5,-2.712796337869998
mp-1213991,CaMnSiO4,-3.072468257637143
mp-1227223,CaMnV4(CuO6)2,-2.140180963673001
mvc-11373,CaMnWO6,-2.31480764844
mp-1228163,CaMnZnAs2H3O10,-1.88765283787889
mp-1044205,CaMo2(PO5)2,-2.660778979952381
mp-1045279,CaMo2O5,-2.2746145292187507
mp-1042314,CaMo2O7,-2.324371508125
mp-1040876,CaMo2P2O9,-2.7076765291454095
mp-1047841,CaMo3P3O13,-2.6083481292589292
mp-1048023,CaMo4O9,-2.0064630506250003
mp-1047199,CaMoAsO5,-2.26451521015625
mvc-14163,CaMoF5,-3.4466462419214285
mvc-11084,CaMoF6,-3.40243290183
mp-989635,CaMoN3,-0.8035015129279998
mp-1214054,CaMoO2,-2.182775068125
mp-607467,CaMoO3,-2.6979553167500003
mp-19330,CaMoO4,-2.710332812916666
mp-1058549,CaN,-0.4751516199400001
mp-1009657,CaN2,-0.75688956742
mp-676,CaN6,-0.4801161745399999
mp-1106358,CaNCl3,-1.0125382944320005
mp-555424,CaNb2(P2O7)3,-2.8802713360535703
mp-555616,CaNb2Bi2O9,-2.0554640020535717
mp-1147663,CaNb2CuBrO7,-2.4595811613541683
mp-686705,CaNb2Ga2(CuO4)3,-2.225629315375001
mp-29792,CaNb2O4,-3.0361277121428563
mp-17101,CaNb2O6,-3.253674438611112
mp-557786,CaNb2P2O11,-3.0747068672209816
mp-1227103,CaNb4O14,-2.299062665526317
mp-1227240,CaNb4O8,-2.9793607159615387
mp-1227146,CaNbNO2,-2.517145773476001
mp-1213992,CaNbO2,-2.377166865625
mp-4957,CaNbO3,-3.1711666217500003
mp-1227167,CaNd2BeO5,-3.524734850416667
mp-1227543,CaNd2Mn3O9,-2.841904711441998
mvc-11950,CaNd2Ti2Mn2O12,-3.071933909092281
mp-677231,CaNd2Ti2ZnO9,-3.4226404246388893
mp-983582,CaNd3,0.08540994875000019
mp-1227184,CaNd3Cr4O16,-2.6704138037500003
mp-1227174,CaNd3Mn4O12,-2.8741800869419984
mp-1183555,CaNdAg2,-0.32540117375
mp-1227115,CaNdAl3O7,-3.5638026565625
mp-1227041,CaNdAlO4,-3.5750895871428567
mp-1183564,CaNdAu2,-0.8175746887499997
mp-867224,CaNdCd2,-0.3675614487499996
mp-1227058,CaNdCoO4,-2.756361990000001
mp-1227141,CaNdCrO4,-3.148520230714286
mp-1227142,CaNdFeO4,-2.964692855714286
mp-1227170,CaNdGa3O7,-2.8329938215625
mp-1227100,CaNdGaO4,-3.101350097142858
mp-865955,CaNdHg2,-0.54630100125
mp-1227166,CaNdMn2O6,-2.7655981469419997
mp-1227105,CaNdNb2O7,-3.325378656250001
mp-866227,CaNdRh2,-0.5090111962499995
mp-41742,CaNdTiMnO6,-3.2513848980126667
mp-866220,CaNdZn2,-0.3018190462499999
mp-1059707,CaNi,0.01862519624999992
mp-1043165,CaNi(GeO3)2,-2.230572704000001
mp-1045813,CaNi(PO3)4,-2.666616287281746
mp-2295,CaNi2,-0.18883743249999974
mvc-14117,CaNi2(P2O7)2,-2.3345885687414976
mp-1040914,CaNi2(PO4)2,-2.42668482456044
mvc-9149,CaNi2(PO5)2,-1.7597993912857144
mp-1043339,CaNi2O5,-0.96367495609375
mp-1043475,CaNi2P2O9,-2.1950882173596944
mvc-11425,CaNi2S5,-1.0080045022265631
mp-19473,CaNi3(P2O7)2,-2.4168124778896103
mvc-9192,CaNi3O7,-0.8520154935227269
mp-8307,CaNi4B,-0.30205836986111123
mvc-10599,CaNi4O9,-0.6909263034821426
mp-1078093,CaNi5H,-0.14178825515999954
mp-1042887,CaNiAs2O7,-1.9909014526136355
mp-541762,CaNiAsHO5,-2.0246738094299994
mvc-5683,CaNiAsO5,-1.926935520156249
mp-1079500,CaNiBN,-0.9738790066366664
mp-25716,CaNiBP2H3O10,-2.3505415573229094
mp-1044575,CaNiBiO5,-1.6067034239062492
mvc-8742,CaNiBiP2O9,-2.3874257900382667
mvc-14355,CaNiF4,-3.11276947621
mvc-3744,CaNiF5,-2.8374266965642865
mvc-15834,CaNiF6,-2.5353129068300007
mp-1077470,CaNiGe,-0.5464848658333334
mp-13512,CaNiGe2,-0.5385063118749995
mp-1095188,CaNiGeH,-0.5565744002800002
mp-1207078,CaNiH3,-0.5484960066719999
mp-1043759,CaNiMoP2O9,-2.5696040700382645
mp-28645,CaNiN,-0.806678078293333
mvc-5566,CaNiO2,-1.94638322625
mp-770252,CaNiO3,-1.6766204172499997
mp-19057,CaNiP2O7,-2.6825587982305192
mp-1043542,CaNiP2WO9,-2.4812236884311227
mp-1043551,CaNiSbP2O9,-2.443984383966838
mp-1043455,CaNiSnP2O9,-2.5510714973596937
mp-961667,CaNiTe,-0.3664622158333337
mvc-12760,CaNiWO6,-1.7918243549999997
mp-1183615,CaNp,0.746985031875
mp-1227243,CaNp(PO4)2,-3.165309370044642
mp-1182382,CaO10,-0.5101595431818179
mp-634859,CaO2,-2.20679994
mp-1183599,CaOs3,0.8579695368750002
mp-1345,CaP,-1.0919778781547624
mp-632758,CaP(H2O3)2,-2.1052125834685715
mp-644443,CaP(HO3)2,-1.9174784414382864
mp-706278,CaP2(H2O3)3,-2.2110308544308728
mp-24130,CaP2(HO)4,-1.8167834719332467
mp-24361,CaP2(HO2)4,-2.3705655590843806
mp-1041040,CaP2(WO4)2,-2.1837929024450555
mp-1044163,CaP2(WO5)2,-2.5694022106190486
mp-540920,CaP2H20C4(N2O3)4,-1.3021766594303343
mp-643898,CaP2H2O7,-2.623396139397977
mp-1214543,CaP2H5NO7,-2.152499392563482
mp-24452,CaP2H6O7,-2.0113120695159825
mp-1203091,CaP2H8(CO3)2,-1.601322777933985
mp-1190799,CaP2O9,-1.6145612390029764
mp-1214043,CaP2PdO7,-2.598797704594156
mp-1041006,CaP2W2O9,-2.540958443788265
mp-1042052,CaP2WO7,-2.5657256759577933
mp-557352,CaP2Xe5F22,-2.0198845504321903
mp-9122,CaP3,-0.6261427772321433
mp-705854,CaP3H10NO12,-1.9602345783336508
mp-849799,CaP3H16(NO4)3,-1.7026041584711022
mp-1205053,CaP3NO9,-2.1827951973256137
mp-1047875,CaP3W3O13,-2.429786772008929
mp-697657,CaP4(HO6)2,-2.6050744983321814
mp-559985,CaP4O11,-2.804681239520089
mp-1048126,CaP4W3O14,-2.1948930837987017
mp-1045855,CaP4WO12,-2.561168242281746
mp-10677,CaPAu,-0.8823173598809522
mp-1182012,CaPBrO8,-1.2616980681493508
mp-24170,CaPH3O4,-2.235991200611428
mp-721347,CaPH4O5F,-2.3210742509635707
mp-24389,CaPH5O6,-2.1536520904032974
mp-24390,CaPHO4,-2.8376362058232654
mp-1182222,CaPIO8,-1.5999001267857138
mp-1182105,CaPNO11,-1.0217912686266328
mp-1190684,CaPO4,-2.8672929332738097
mp-1214151,CaPO6,-1.8447907921428577
mp-28339,CaPPt,-1.140903234047619
mp-9789,CaPS3,-1.4576476433660723
mp-11007,CaPSe3,-0.8885234010848215
mp-20549,CaPb3,-0.3301490443749997
mp-1227112,CaPb3Se4,-0.9142701914843748
mp-1096267,CaPbAu2,0.8067053131249997
mp-20463,CaPbF6,-3.0518009193300006
mp-753670,CaPbI4,-1.15837831625
mp-771691,CaPbI6,-0.7884946006249998
mp-20079,CaPbO3,-2.1881712972500003
mp-1227206,CaPbSe2,-1.2755073111718749
mp-213,CaPd,-0.6796941387500004
mp-833,CaPd2,-0.7038725058333336
mp-1097216,CaPd2Pb,1.2400836056249998
mp-3315,CaPd3O4,-1.523238892187499
mp-11826,CaPd5,-0.36952579458333307
mp-1096025,CaPdAu2,0.9508948531249994
mp-8161,CaPdF4,-2.8519380687100004
mp-7922,CaPdF6,-2.63272915308
mp-672254,CaPdPb,-0.6250393336111107
mp-1183605,CaPm3,0.08665495249999955
mp-1183552,CaPmAg2,-0.32623619625
mp-862882,CaPmAu2,-0.8118972312500006
mp-862881,CaPmCd2,-0.3655140537499997
mp-862883,CaPmHg2,-0.5456961987500002
mp-1183567,CaPmMg2,-0.09499443624999993
mp-862884,CaPmPd2,-0.7464259037500005
mp-862886,CaPmPt2,-1.01439642375
mp-862885,CaPmRh2,-0.5328319862499997
mp-862888,CaPmZn2,-0.3025504187500001
mp-1044462,CaPr(AgO3)2,-1.802952587
mp-1044460,CaPr(BiO3)2,-2.445804283000001
mp-1044741,CaPr(CoO3)2,-2.3141345720000017
mp-1044464,CaPr(CuO3)2,-2.0940490169999997
mp-1044754,CaPr(FeO3)2,-2.6211220585
mp-1044742,CaPr(MoO3)2,-2.8062805185000004
mp-1044733,CaPr(NiO3)2,-2.0042618035000004
mp-1044443,CaPr(SbO3)2,-2.5133618515
mp-1044508,CaPr(SnO3)2,-2.6874382340000005
mp-1044771,CaPr(WO3)2,-2.6321537864999995
mp-1227164,CaPr2BeO5,-3.4987736451388884
mp-1147781,CaPr2Mn3O9,-2.5209782494419994
mp-686602,CaPr2Ti2ZnO9,-3.4109700726388894
mp-1183600,CaPr3,0.07853429812499968
mp-1227199,CaPr3(CoO3)4,-2.446341530625
mp-1227161,CaPr3(FeO3)4,-2.7492932896249997
mp-866060,CaPrAg2,-0.3105586468750001
mp-1227113,CaPrAl3O7,-3.559569561354167
mp-867257,CaPrCd2,-0.3686025743750001
mp-1227079,CaPrCoO4,-2.745178400357144
mp-1044723,CaPrCr2O6,-2.8640513559999987
mp-1227145,CaPrCrO4,-3.1355933160714287
mp-867217,CaPrHg2,-0.5459654118750004
mp-40630,CaPrMn2O6,-2.755767988692
mp-756708,CaPrO3,-3.0297842942500006
mp-1183584,CaPrRh2,-0.4923268043750007
mp-1044426,CaPrTi2O6,-3.6019134878333343
mp-1044725,CaPrV2O6,-3.0642230790000005
mp-842,CaPt2,-0.9407343591666664
mp-755647,CaPt3O4,-1.4075307634374994
mp-30481,CaPt5,-0.5306498779166661
mp-8255,CaPtF6,-2.6968656255799996
mp-4784,CaPtO3,-2.00462302225
mp-1181891,CaPtO6,-0.8960375850000011
mp-864998,CaPuRh2,0.08266550640624892
mp-1202419,CaRe2C5N10O13,-0.7235466422999999
mp-696020,CaRe2H6C(NO5)2,-1.7357641554649987
mp-631420,CaRe2Si,0.8063688218749991
mp-1194506,CaRe3(Se2O3)2,-0.7906878519196425
mp-1202564,CaRe3H9(S2O3)2,-1.4133758261447829
mp-631458,CaReBi,0.7531034933333333
mp-866312,CaReH4ClO6,-2.03556866348
mp-989606,CaReN3,-0.7511086619279993
mp-571262,CaRh2,-0.4146375225000001
mp-1093536,CaRh2Pb,1.937891993125
mp-9928,CaRhF6,-2.7644690080800003
mp-1078659,CaRhO3,-2.1099938182500004
mp-20947,CaRuO3,-2.239601010250001
mp-556040,CaS2(ClO3)2,-2.199075169854091
mp-1019581,CaS3O10,-2.2476253908705357
mp-4406,CaSO4,-2.7972678477604163
mp-1197885,CaSO6,-1.7696753620703127
mp-504882,CaSb10(S3O5)2,-1.4965807827546298
mp-7493,CaSb2,-0.6149681624999997
mp-1043569,CaSb2(PO5)2,-2.447779762952381
mp-780667,CaSb2H2F14,-2.7891340278368424
mvc-4397,CaSb2O5,-2.0625945804687493
mp-1044815,CaSb2P2O9,-2.5303702307525504
mvc-12321,CaSb2S5,-0.8505239550390629
mp-1043964,CaSb3O7,-2.043624800795456
mp-1041203,CaSb3P3O13,-2.436976508508929
mp-1196948,CaSb4H6(SO8)2,-1.9066869714601729
mp-1041122,CaSb4O9,-1.938763131339286
mp-1047058,CaSbAsO5,-2.2161730439062506
mp-16245,CaSbAu,-0.8045665558333331
mvc-3481,CaSbF5,-3.3549491215642857
mvc-15694,CaSbF6,-3.2068906199550002
mvc-3975,CaSbO3,-2.45293790175
mp-1213959,CaSbPd,-0.9343210725000012
mp-1183547,CaSbPd2,-0.7063568006249996
mp-8487,CaSbPt,-0.9801209041666668
mp-1097497,CaSbRh2,1.9414452543749992
mp-4056,CaSc2O4,-3.798854331071429
mp-39167,CaScAlSiO6,-3.6012674615000018
mp-1096478,CaScHg2,1.238034903125
mp-1097468,CaScIn2,1.6221158414583332
mp-1183534,CaScO3,-3.0877664182500006
mp-1097440,CaScRh2,1.5967407981249997
mp-707027,CaScSi3HO9,-3.2819377394913336
mp-1096448,CaScTl2,1.5506255056249998
mp-27845,CaSe2O5,-1.927917219492188
mp-1188389,CaSe2O7,-1.4630941973437497
mp-557997,CaSeO3,-2.32082598446875
mp-1190360,CaSeO4,-2.1132729293489576
mp-1563,CaSi,-0.5382741187499995
mp-2699,CaSi2,-0.38278646083333295
mp-6419,CaSi2(BO4)2,-3.2105447896794863
mp-556884,CaSi2(NO)2,-2.4164768791323814
mp-19220,CaSi2NiO6,-2.9039581065000006
mp-29755,CaSi2O5,-3.303804862343749
mp-1041529,CaSi2SnO6,-2.971121869625
mp-1041992,CaSi2WO6,-2.696770921875001
mp-1205346,CaSi3,-0.19502579812500093
mp-1068653,CaSi3Ir,-0.6298858955000007
mp-1069604,CaSi3Pt,-0.646091387500001
mp-1182049,CaSi3SnO11,-2.3679737166406243
mvc-12761,CaSi4(NiO6)2,-2.5574490711842097
mp-1043642,CaSi4NiO10,-2.982327905625
mp-1043411,CaSi4SnO10,-3.0886641901562504
mp-1043702,CaSi4WO10,-2.9721262820312493
mp-1191649,CaSi7Ir3,-0.6364702565909087
mp-554371,CaSiBHO5,-2.964318016281851
mp-1198768,CaSiBO5,-2.9948271894270837
mp-568965,CaSiN2,-1.4180621621274998
mp-10797,CaSiNi2,-0.5432694168749999
mp-5733,CaSiO3,-3.46458893925
mp-1191741,CaSiO4,-2.5360697725
mp-1195298,CaSiP2,-0.6732584852901784
mp-8842,CaSiPd,-0.7850819433333337
mp-4478,CaSiPt,-0.9790457175
mp-6809,CaSiSnO5,-2.953665961093749
mp-754240,CaSm2O4,-3.643302428214285
mp-1227043,CaSm2S3,-2.400913674114584
mp-1183610,CaSm3,0.09415140874999972
mp-1183560,CaSmAg2,-0.32435646249999994
mp-1227109,CaSmAl3O7,-3.5690239711458336
mp-1227030,CaSmAl4,-0.4214186416666663
mp-1227060,CaSmAlO4,-3.593925935
mp-1227050,CaSmB12,-0.4392266557142861
mp-864620,CaSmCd2,-0.3611158149999998
mp-1227147,CaSmCoO4,-2.788832066428571
mp-1227138,CaSmCrO4,-3.1639790835714274
mp-620364,CaSmCuClO3,-2.7280362195728576
mp-1227208,CaSmGa3O7,-2.8320218911458332
mp-866014,CaSmHg2,-0.5419196675
mp-1183908,CaSmIn2,-0.4293549041666669
mp-1183557,CaSmMg2,-0.08845760250000012
mp-1227140,CaSmMgNbO6,-3.4237026697500004
mp-1227151,CaSmMn2O6,-2.7791340464419987
mp-698702,CaSmMnSnO6,-2.810159692846
mp-1183576,CaSmPd2,-0.7520279400000005
mp-866280,CaSmRh2,-0.5488471449999999
mp-866061,CaSmZn2,-0.29989540250000024
mp-2450,CaSn,-0.6480280387500001
mp-14398,CaSn(BO3)2,-2.8532170183333343
mp-1043030,CaSn(GeO3)2,-2.2900138125000007
mp-1045579,CaSn(PO3)4,-2.7019303233928573
mp-1044660,CaSn2(PO4)2,-2.596634686675823
mp-1043566,CaSn2(PO5)2,-2.613499602952381
mp-30146,CaSn2F6,-3.1355506988488893
mp-11957,CaSn2Ir,-0.5730957718749998
mvc-4413,CaSn2O5,-2.293823778593749
mp-1049213,CaSn2P2O9,-2.576893559323981
mp-11958,CaSn2Pd,-0.668897088125
mp-11959,CaSn2Rh,-0.6569839893750009
mp-1100353,CaSn2S5,-1.1538713081640628
mp-11290,CaSn3,-0.3910970056249998
mp-1047074,CaSn3(P2O7)2,-2.526746247662337
mp-1044042,CaSn3O7,-2.2093680569318184
mvc-10323,CaSn3P3O13,-2.5036926500089294
mp-1100376,CaSn3S7,-0.8798991237215916
mp-984716,CaSn4(PO4)6,-2.6125078188673467
mp-1041436,CaSn4O9,-2.1726915016964288
mp-1045878,CaSn5O7,-1.8383275031730768
mp-1100384,CaSn5S11,-0.869807443069853
mp-1042459,CaSnAs2O7,-2.0986307942045457
mvc-5477,CaSnAsO5,-2.2725551320312496
mp-29561,CaSnAu,-0.7391594509999999
mp-977359,CaSnAu2,-0.5927336906249998
mp-1042412,CaSnBiO5,-2.1484760257812496
mp-1048327,CaSnF4,-3.3714097128766665
mvc-3405,CaSnF5,-3.276412688707143
mp-8224,CaSnF6,-3.4241685524550003
mp-1019104,CaSnHg,-0.5179609024999996
mp-1095958,CaSnHg2,0.855172131875
mp-1029633,CaSnN2,-0.6244575543149997
mvc-4868,CaSnO2,-2.34519930125
mp-1201737,CaSnO6,-0.992938102500001
mp-1041696,CaSnP2O7,-2.8017090086850653
mp-1200443,CaSnP6(HO)12,-1.56000730761866
mp-30437,CaSnPd,-0.8075011758333339
mp-1097429,CaSnPd2,1.2172042068750004
mp-1102040,CaSnPt,-0.9215104725000008
mp-861935,CaSnRh2,-0.5549872881250009
mp-866826,CaSnS3,-1.4171614859375012
mp-1041087,CaTa2(CuO4)2,-2.5495542205769226
mp-556697,CaTa2Bi2O9,-2.8662550913392857
mvc-7604,CaTa2CoO7,-2.985375585681817
mp-1041633,CaTa2CuO7,-2.8737806955681813
mp-694913,CaTa2Ga2(CuO4)3,-2.3367122997500003
mp-18229,CaTa2O6,-3.5017917511111114
mp-631411,CaTa2Tl,0.6180099293749999
mp-3079,CaTa4O11,-3.448483844765624
mp-1227122,CaTa4O14,-2.5595445907894727
mp-15733,CaTaAlO5,-3.5026402173437488
mp-1042364,CaTaBiO5,-2.911388719062499
mp-558235,CaTaF7,-3.8670072462959264
mp-556340,CaTaNO2,-2.7693219514760004
mp-631395,CaTaTc,1.0397006875000006
mp-1227302,CaTb2Mn3O9,-2.8851048090531104
mp-755044,CaTb2O4,-3.7581493155952383
mp-1232418,CaTb3,0.11864673562500005
mp-1227131,CaTb3Mn4O12,-2.9241828513169987
mp-20154,CaTbF6,-3.7893134959966672
mp-1183566,CaTbHg2,-0.5434915227083332
mp-1227156,CaTbMn2O6,-2.7981894205253326
mp-1183553,CaTbPd2,-0.7798624077083334
mp-1183546,CaTbRh2,-0.6132921177083333
mp-989638,CaTcN3,-0.5998909269279992
mp-1188853,CaTcO3,-2.4898217207499997
mp-5040,CaTe2O5,-2.112311245156251
mp-1042174,CaTe2O7,-1.6743420416249997
mp-15511,CaTe3O8,-1.9128565735416672
mp-559128,CaTeCO5,-2.2551524734374992
mp-560656,CaTeO3,-2.425603447449999
mp-12221,CaTeO4,-2.286436252916667
mp-1227211,CaTh(PO4)2,-3.4385461534821418
mp-29015,CaThBr6,-1.8102251565625
mp-1214004,CaThI6,-1.3473277884375
mp-1227121,CaThNb2O8,-3.532953418958332
mp-866282,CaThRh2,-0.6509016968749997
mp-1227081,CaThV2O8,-3.180902878958334
mp-1042982,CaTi(GeO3)2,-2.7331783099166667
mp-1045626,CaTi(PO3)4,-2.817270703207672
mp-1043438,CaTi(Si2O5)2,-3.1813469807291668
mp-1157680,CaTi(SiO3)2,-3.174199317166667
mp-1040989,CaTi2(CuO4)2,-2.4041278825641017
mp-709021,CaTi2(HO3)2,-2.974958731188485
mp-1044634,CaTi2(PO4)2,-2.8338941336630032
mp-1043473,CaTi2(PO5)2,-3.190775677507937
mp-1048301,CaTi2Be3(SiO4)3,-3.0631451639682545
mp-1042502,CaTi2CoO7,-2.74639524189394
mvc-11781,CaTi2F10,-3.852875336364103
mvc-11942,CaTi2Fe2(PO4)6,-2.747286651534014
mp-1200872,CaTi2FeO6,-3.1295183773333344
mp-1194928,CaTi2MnO6,-3.2551222044293326
mp-3463,CaTi2O4,-3.362430160833333
mvc-12368,CaTi2O5,-3.560107012760416
mp-1181883,CaTi2O6,-2.989992526481482
mp-1044885,CaTi2P2O9,-3.1339996145620765
mp-1237057,CaTi2PbO6,-3.1245481298333333
mvc-14054,CaTi2S5,-1.7793523870182302
mp-1047077,CaTi3(P2O7)2,-2.7814525274350657
mp-1041164,CaTi3P3O13,-3.0802050880089302
mp-22592,CaTi4(CuO4)3,-2.712497165208333
mp-24950,CaTi4(FeO4)3,-2.974767370458334
mp-16831,CaTi4(PO4)6,-3.1178170967721086
mp-1105917,CaTi4(PdO4)3,-2.6123498309583324
mp-1046693,CaTi4O6,-3.1448260124242418
mp-1040874,CaTi4O9,-3.451365411101192
mvc-2210,CaTi5O7,-3.0632266676602566
mp-1227585,CaTi8Mn(PO4)12,-3.061683259821537
mp-1227270,CaTi8Zn2O19,-3.2789481474861115
mp-1042508,CaTiAs2O7,-2.519054182083333
mvc-5383,CaTiAsO5,-2.837959845364584
mp-1043855,CaTiBiO5,-2.7267528459895836
mvc-14286,CaTiF4,-3.5720703031544447
mp-8395,CaTiF5,-3.9138216485880952
mp-27315,CaTiF6,-3.9949710926633335
mp-39160,CaTiFe(PO4)3,-2.941133804755292
mp-17784,CaTiGeO5,-3.0659330600520844
mp-1029572,CaTiN2,-1.5479046712941669
mp-1043092,CaTiNiP2O9,-2.8930722690858843
mp-4019,CaTiO3,-3.5727854288333334
mvc-5356,CaTiP2O7,-2.925480931109308
mp-1046492,CaTiPO5,-3.2118411103199405
mp-1041194,CaTiS2,-1.8773818505729167
mp-6109,CaTiSiO5,-3.493080220989582
mp-2861,CaTl,-0.4435762212500003
mp-984769,CaTl2Cd,-0.2263516756249997
mp-5402,CaTl2O4,-1.7443546725
mp-1097156,CaTl2Pb,1.109263465625
mp-526,CaTl3,-0.2405716881250001
mp-1096652,CaTlAg2,0.992572709375
mp-1097576,CaTlAu2,0.6065275943749997
mp-1205521,CaTlBr3,-1.6015024885000002
mp-998787,CaTlCl3,-2.2156724314560003
mp-1181953,CaTlCl5O7,-0.9049151551821428
mp-998615,CaTlF3,-3.326659794214
mp-1096239,CaTlHg2,0.7872992268749999
mp-1206188,CaTlI3,-1.2436795055
mp-1093876,CaTlPd2,0.983119756875
mp-1227267,CaTm2(GeO3)4,-2.8618455377631578
mp-1178472,CaTm2O4,-3.8578214917857134
mp-984791,CaTmCd2,-0.32518711187500005
mp-1183581,CaTmHg2,-0.519940264375
mp-1183672,CaTmIn2,-0.4177910660416671