task_id,composition,formation_energy_per_atom
mp-541559,Cs2MnO4,-1.7431810808391128
mp-505034,Cs2MnS2,-1.218680705107758
mp-1199926,Cs2MnSO4F3,-2.590914490318755
mp-573947,Cs2MnSe2,-0.9362058929202582
mp-1203621,Cs2MnSi5O12,-3.0418740746061896
mp-22235,Cs2MnSnTe4,-0.6046931853017243
mp-610744,Cs2MnTe2,-0.7755940994827583
mp-639397,Cs2MnV2(BrO3)2,-2.1619845446826003
mp-639410,Cs2MnV2(ClO3)2,-2.308121755953369
mp-1193654,Cs2Mo(SO)2,-1.7125562811483996
mp-645299,Cs2Mo2O11,-1.2445098960775869
mp-1193056,Cs2Mo3O10,-2.199950485660919
mp-1214995,Cs2Mo3P3O17,-2.4493971312036935
mp-1196773,Cs2Mo3P5O19,-2.582712116788899
mp-1202511,Cs2Mo4O13,-2.1511966865086207
mp-1201373,Cs2Mo5(P3O11)3,-2.5757586521010105
mp-1200365,Cs2Mo5O16,-2.1211709944527732
mp-1200748,Cs2Mo7O22,-2.090338564674639
mp-1207229,Cs2MoBr6,-1.1663068802681995
mp-570990,Cs2MoCl6,-1.8371981657748653
mp-1182795,Cs2MoN(Cl2O)2,-1.5787280235333792
mp-1194312,Cs2MoO4,-2.2676809789162564
mp-1213774,Cs2MoO8,-1.0623148736285268
mp-1194448,Cs2MoS3O,-1.4248351208358991
mp-560635,Cs2MoS4,-1.3715016462376854
mp-866654,Cs2MoSe4,-0.8696471891841132
mp-567575,Cs2Na(C2N3)3,-0.2692247506296547
mp-559557,Cs2Na2B10O17,-2.801673257268724
mp-616507,Cs2Na2IrO4,-1.533161074157089
mp-1019611,Cs2Na2Sr(B3O5)6,-2.8884050247153534
mp-504852,Cs2Na3InO4,-1.6358951110747129
mp-562541,Cs2Na3TlO4,-1.4442676032413797
mp-709921,Cs2Na4Cu2Si12H4O31,-2.7344575309207957
mp-1226410,Cs2Na6Al6Ge7O30,-2.3761842734296814
mp-581862,Cs2NaAl(PO4)2,-2.8498026791392497
mp-12309,Cs2NaAl3F12,-3.6759346084274336
mp-1112997,Cs2NaAlCl6,-2.156243254697379
mp-6528,Cs2NaAlF6,-3.4313361434553795
mp-989642,Cs2NaAlH6,-0.3051003649133789
mp-1197430,Cs2NaAs7,-0.35913020949138
mp-1110566,Cs2NaAsBr6,-1.2419752242413795
mp-989608,Cs2NaAsCl6,-1.8160512501973798
mp-1112596,Cs2NaAsF6,-2.8137407119553792
mp-8314,Cs2NaAsO4,-2.0464316409267242
mp-571248,Cs2NaAu3(CN)6,-0.200741500788544
mp-1110565,Cs2NaAuBr6,-1.0498600507413791
mp-1112994,Cs2NaAuCl6,-1.5720406286973794
mp-1112661,Cs2NaBiBr6,-1.3817705312413795
mp-1080041,Cs2NaBiCl6,-1.9640127851973792
mp-560790,Cs2NaBiF6,-2.95138579395538
mp-1112659,Cs2NaBiI6,-1.0656605282413794
mp-989644,Cs2NaCaCl6,-2.164785980447379
mp-989572,Cs2NaCaF6,-3.0752870762053788
mp-1112660,Cs2NaCeBr6,-1.8210520667413799
mp-1079458,Cs2NaCeCl6,-2.4476995676973794
mp-1110982,Cs2NaCeF6,-3.5488612884553796
mp-1112656,Cs2NaCeI6,-1.4420795987413793
mp-669384,Cs2NaCo(CN)6,-0.3015789299496117
mp-621730,Cs2NaCoF6,-2.7334399704553802
mp-17165,Cs2NaCr(CN)6,-0.27557543994961264
mp-1205696,Cs2NaCrCl6,-1.9931264796973795
mp-557047,Cs2NaCrF6,-3.111742725455379
mp-1110563,Cs2NaDyCl6,-2.493194972697379
mp-580589,Cs2NaErCl6,-2.4948006621973797
mp-13816,Cs2NaErF6,-3.6280211189553775
mp-1112989,Cs2NaEuCl6,-2.29933007419738
mp-541977,Cs2NaFe(CN)6,-0.26177487119961196
mp-620924,Cs2NaFeF6,-3.0000700944553795
mp-1110642,Cs2NaGaBr6,-1.3566757497413793
mp-1112988,Cs2NaGaCl6,-1.9730137376973795
mp-6163,Cs2NaGaF6,-3.07900495845538
mp-989594,Cs2NaGaH6,-0.2005290319133792
mp-1213705,Cs2NaGaP2,-0.4329697827832515
mp-1112657,Cs2NaGdCl6,-2.48419349969738
mp-542951,Cs2NaHoCl6,-2.49298598719738
mp-996943,Cs2NaInBr6,-1.4070083480747129
mp-989571,Cs2NaInCl6,-2.0092582310307128
mp-13898,Cs2NaInF6,-3.0214088737887126
mp-989610,Cs2NaInH6,-0.18031829324671272
mp-1112149,Cs2NaInI6,-1.0674514750747128
mp-1112014,Cs2NaIrF6,-2.5562619354553786
mp-1079096,Cs2NaLaBr6,-1.87851531374138
mp-1080017,Cs2NaLaCl6,-2.50336651569738
mp-989559,Cs2NaLiF6,-2.451884923455379
mp-1111824,Cs2NaLuCl6,-2.49260211169738
mp-989568,Cs2NaMgF6,-2.98547114945538
mp-20915,Cs2NaMn(CN)6,-0.2588575186996129
mp-554858,Cs2NaMnF6,-2.9467281915513794
mp-1111822,Cs2NaMoBr6,-1.2745736177413791
mp-1111434,Cs2NaMoCl6,-1.895878921697379
mp-1112148,Cs2NaMoI6,-0.9323034817413792
mp-989527,Cs2NaNF6,-1.85919200269338
mp-1112145,Cs2NaNdBr6,-1.84262802249138
mp-1111821,Cs2NaNdCl6,-2.4699057824473787
mp-1110981,Cs2NaNdF6,-3.5448111442053802
mp-989556,Cs2NaPbF6,-2.7929539544553785
mp-1112146,Cs2NaPrBr6,-1.8392681317413797
mp-1111820,Cs2NaPrCl6,-2.46506149869738
mp-1110980,Cs2NaPrF6,-3.5367369554553787
mp-1112144,Cs2NaPrI6,-1.4630771497413793
mp-1111979,Cs2NaRhF6,-2.6491767424553787
mp-1112013,Cs2NaRuF6,-2.6341990709553795
mp-1112142,Cs2NaSbBr6,-1.3283633662413792
mp-989514,Cs2NaSbCl6,-1.9081922671973792
mp-1110979,Cs2NaSbF6,-2.9294444359553795
mp-1112140,Cs2NaSbI6,-1.0185895932413789
mp-1112534,Cs2NaScBr6,-1.7803182857413795
mp-1111433,Cs2NaScCl6,-2.4235589536973787
mp-6204,Cs2NaScF6,-3.5871323114553797
mp-1112141,Cs2NaScI6,-1.3893249777413792
mp-580541,Cs2NaSmCl6,-2.47952331694738
mp-989574,Cs2NaSrF6,-3.0381223714553798
mp-1111728,Cs2NaTaBr6,-1.3089931127413792
mp-1111428,Cs2NaTaCl6,-1.9428256476973795
mp-1114087,Cs2NaTaF6,-2.9991817484553795
mp-1112399,Cs2NaTaI6,-0.9502363237413788
mp-568670,Cs2NaTbCl6,-2.4920003850307126
mp-562050,Cs2NaTiF6,-3.3203852127887123
mp-1112138,Cs2NaTlBr6,-1.2613772452413792
mp-1112527,Cs2NaTlCl6,-1.8295941621973797
mp-13800,Cs2NaTlF6,-2.74685570395538
mp-1112139,Cs2NaTlI6,-0.9594010812413796
mp-1112567,Cs2NaTmCl6,-2.49546920369738
mp-1214014,Cs2NaUBr6,-1.5749157479913791
mp-23108,Cs2NaUCl6,-2.1936933916973795
mp-687094,Cs2NaVF6,-3.1691020549553794
mp-19447,Cs2NaVO4,-2.3071225771767248
mp-571467,Cs2NaYBr6,-1.8520021917413798
mp-23120,Cs2NaYCl6,-2.49056915069738
mp-13925,Cs2NaYF6,-3.6017413084553795
mp-1112137,Cs2NaYI6,-1.4635963617413794
mp-567172,Cs2NaYbCl6,-2.19534679069738
mp-1201406,Cs2Nb3Cl7O5,-2.470509838322576
mp-581217,Cs2Nb4O11,-2.9734779841125762
mp-569465,Cs2Nb6PbCl18,-1.7804534430034735
mp-1112950,Cs2NbAgF6,-2.67572786495538
mp-623028,Cs2NbAgS4,-1.3776568110829746
mp-14637,Cs2NbAgSe4,-0.9633172233485988
mp-1112641,Cs2NbAuF6,-2.65191979095538
mp-1113104,Cs2NbCuF6,-2.6142584679553797
mp-15223,Cs2NbCuSe4,-0.9864839364735992
mp-8995,Cs2NbF6,-3.2647355321726432
mp-1111976,Cs2NbTlF6,-2.808925018455379
mp-1112944,Cs2NdAgBr6,-1.5856796869913794
mp-1112945,Cs2NdAgCl6,-2.18742865694738
mp-1113229,Cs2NdAgF6,-3.20167816970538
mp-1113269,Cs2NdAgI6,-1.2425747209913791
mp-1113409,Cs2NdAuCl6,-2.0489317509473794
mp-1111885,Cs2NdCuBr6,-1.5313035819913794
mp-1112884,Cs2NdCuI6,-1.178798530991379
mp-1199764,Cs2NdN5O17,-1.0049983367225526
mp-624571,Cs2Ni(NO3)4,-1.2631576274702003
mp-553980,Cs2Ni(PS3)2,-1.013423385552227
mp-1203005,Cs2Ni2(MoO4)3,-1.935658916179674
mp-28486,Cs2Ni3S4,-1.0310038615181998
mp-14336,Cs2Ni3Se4,-0.6449845251987552
mp-1206689,Cs2NiAs2,-0.4034955564827591
mp-689925,Cs2NiF6,-2.3573556977282
mp-633571,Cs2NiH12(SO7)2,-1.6756185826283485
mp-769864,Cs2NiO2,-1.1646688689827585
mp-573103,Cs2Np(SO5)2,-2.58230479778592
mp-572986,Cs2Np2PO4F7,-3.394021846586666
mp-647426,Cs2NpBr6,-1.590758555684866
mp-754973,Cs2NpO3,-2.518391382485632
mp-1025274,Cs2NpO4,-2.8603053280233985
mp-7988,Cs2O,-1.1971620645545975
mp-7896,Cs2O2,-1.2307839112284489
mp-1213719,Cs2O3,-1.0197862622327585
mp-1229109,Cs2OsBrClF4,-2.1305585583815323
mp-643074,Cs2P2H2O7,-2.4097877828991923
mp-1205610,Cs2P2Pd,-0.5135599093399016
mp-14652,Cs2P3,-0.46142814176847297
mp-1199678,Cs2P4Pd3O14,-2.2025926690645745
mp-1196015,Cs2PAuS4,-1.1252194332258316
mp-1199614,Cs2PH4Se3O2,-1.0854350743598251
mp-6557,Cs2PO3F,-2.7695426267138066
mp-569060,Cs2PSe5,-0.6480380553156748
mp-1105197,Cs2PaF7,-3.81570198757438
mp-1213706,Cs2Pb2O3,-1.537324183737685
mp-23425,Cs2PbCl6,-1.7307864368859769
mp-989549,Cs2PbClF6,-2.3466262102813795
mp-1193131,Cs2PbN2(ClO3)2,-1.5316864777841384
mp-562263,Cs2PbO2,-1.4965063494827588
mp-21521,Cs2PbO3,-1.5520358001939651
mp-543024,Cs2Pd(IBr2)2,-0.9551938558237544
mp-607298,Cs2Pd(ICl2)2,-1.3459586383837547
mp-510268,Cs2Pd3S4,-1.0438172176293108
mp-11694,Cs2Pd3Se4,-0.7438813829765323
mp-1205847,Cs2PdBr6,-1.0155501113793102
mp-505824,Cs2PdC2,0.047739278017241565
mp-1078085,Cs2PdCl4,-1.7377324336362558
mp-1206568,Cs2PdCl6,-1.5836000368859775
mp-504729,Cs2PdF6,-2.4305051499504216
mp-569066,Cs2PdI6,-0.7922302358237547
mp-1213749,Cs2Pr10Co2I17,-1.2371067381423806
mp-1213720,Cs2Pr10Os2I17,-1.2544464152391541
mp-1213729,Cs2Pr10Ru2I17,-1.2617795949165735
mp-1113236,Cs2PrAgCl6,-2.18195065319738
mp-1113230,Cs2PrAgF6,-3.1868733069553796
mp-1112942,Cs2PrAgI6,-1.2421925532413791
mp-1113408,Cs2PrAuCl6,-2.0436440701973795
mp-1213713,Cs2PrCl5,-2.553654632964224
mp-1113355,Cs2PrCuBr6,-1.5288287572413792
mp-1111470,Cs2PrCuCl6,-2.1287752251973795
mp-1112883,Cs2PrCuI6,-1.1787161822413794
mp-1207345,Cs2PrF6,-3.330156338839311
mp-7646,Cs2PrO3,-2.1955925018606326
mp-13548,Cs2Pt,0.04054017919540224
mp-13992,Cs2Pt3S4,-1.0384150331848665
mp-14338,Cs2Pt3Se4,-0.7105804674209774
mp-30062,Cs2PtBr6,-1.059719376934866
mp-505825,Cs2PtC2,-0.05736225798275853
mp-600193,Cs2PtC2(OF)4,-2.013876496128754
mp-1193434,Cs2PtC4(IN2)2,-0.2904945520718299
mp-29216,Cs2PtCl4,-1.7010120057791132
mp-23406,Cs2PtCl6,-1.6472285946637544
mp-9262,Cs2PtF6,-2.4778419010615327
mp-23060,Cs2PtI6,-0.8230444469348659
mp-622197,Cs2PtS6(O3F)6,-2.059225463831176
mp-1078872,Cs2Pu(Cl2O)2,-2.4647422683143105
mp-571448,Cs2PuCl6,-2.2958718665387545
mp-1025208,Cs2PuO4,-2.6950418320412552
mp-1112531,Cs2RbAlBr6,-1.5202871532758622
mp-1112525,Cs2RbAlCl6,-2.1724732442318624
mp-1112133,Cs2RbAlI6,-1.1353566622758622
mp-1112134,Cs2RbAsBr6,-1.254733333775862
mp-1112007,Cs2RbAsCl6,-1.821413465731862
mp-1111968,Cs2RbAsF6,-2.7982527404898634
mp-1112131,Cs2RbAsI6,-0.9638622547758618
mp-1112524,Cs2RbAuBr6,-1.0570956812758625
mp-1112523,Cs2RbAuCl6,-1.5646952092318618
mp-1111977,Cs2RbAuF6,-2.3448106709898617
mp-1112132,Cs2RbBiBr6,-1.3889305037758621
mp-1112129,Cs2RbBiCl6,-1.9623250067318616
mp-559695,Cs2RbBiF6,-2.943614218489862
mp-1112161,Cs2RbBiI6,-1.082822749775862
mp-1112520,Cs2RbCeCl6,-2.441084954231864
mp-1206535,Cs2RbCuF6,-2.5608054749898623
mp-1112130,Cs2RbDyCl6,-2.490162865231862
mp-1112127,Cs2RbErCl6,-2.492616846731862
mp-1112519,Cs2RbEuCl6,-2.2891012027318625
mp-505661,Cs2RbFe(CN)6,-0.2656396749711636
mp-1112518,Cs2RbGaBr6,-1.3767152052758622
mp-1112517,Cs2RbGaCl6,-1.9871676812318624
mp-989618,Cs2RbGaF6,-3.0894226249898624
mp-1112155,Cs2RbGaI6,-1.0334733022758622
mp-1112516,Cs2RbGdCl6,-2.480016652231862
mp-996941,Cs2RbInBr6,-1.4210576106091957
mp-1112125,Cs2RbInCl6,-2.015422185565196
mp-989605,Cs2RbInF6,-3.005768363323196
mp-1112521,Cs2RbInI6,-1.0891810576091954
mp-1111965,Cs2RbIrF6,-2.542556076989862
mp-1112126,Cs2RbLaCl6,-2.4969175772318613
mp-1112515,Cs2RbLuCl6,-2.4926116632318616
mp-989519,Cs2RbNF6,-1.8720215262278617
mp-1097263,Cs2RbNa,0.5240612230603447
mp-1111966,Cs2RbNbF6,-3.003892553989861
mp-1112123,Cs2RbNdCl6,-2.465421684981861
mp-989525,Cs2RbPbF6,-2.769100417989862
mp-1205550,Cs2RbPdF6,-2.4895326189898617
mp-1112124,Cs2RbPrCl6,-2.4593030132318625
mp-1112166,Cs2RbRuF6,-2.6345659614898618
mp-1095809,Cs2RbSb,0.5267917605603447
mp-1112121,Cs2RbSbBr6,-1.3359717357758618
mp-1112122,Cs2RbSbCl6,-1.9065122037318625
mp-1112513,Cs2RbSbF6,-2.9073579804898637
mp-1112512,Cs2RbSbI6,-1.034931716775862
mp-1112119,Cs2RbScBr6,-1.7897821122758617
mp-1112120,Cs2RbScCl6,-2.4266628332318625
mp-1111963,Cs2RbScF6,-3.571520311989861
mp-1112117,Cs2RbScI6,-1.4075943902758623
mp-1226147,Cs2RbSiF7,-3.34085223964442
mp-1112118,Cs2RbSmCl6,-2.4747889654818627
mp-1112511,Cs2RbTaF6,-2.9642596019898617
mp-1112115,Cs2RbTbCl6,-2.488535591565196
mp-1112116,Cs2RbTlBr6,-1.272185751775862
mp-1112004,Cs2RbTlCl6,-1.8323433857318616
mp-989567,Cs2RbTlF6,-2.7206862894898616
mp-1112510,Cs2RbTlI6,-0.9763433607758618
mp-1111479,Cs2RbTmCl6,-2.493003161231861
mp-1112113,Cs2RbYBr6,-1.8577061922758615
mp-1112114,Cs2RbYCl6,-2.4876734662318616
mp-7886,Cs2RbYF6,-3.5968989989898623
mp-1112507,Cs2RbYI6,-1.4788712572758618
mp-42022,Cs2RbZrOF5,-3.3754823344958624
mp-1202505,Cs2Re(ClO)3,-2.074716401215978
mp-653954,Cs2Re2S5,-1.1583822719695889
mp-651741,Cs2Re2Se5,-0.7037746759684309
mp-1214500,Cs2Re3Se4I3,-0.8013544771282332
mp-567942,Cs2ReCl6,-1.7306246543859771
mp-1205774,Cs2ReF6,-2.8048001252281995
mp-1096938,Cs2ReO4,-2.141153040344828
mp-1112594,Cs2RhAuF6,-2.10536903195538
mp-1113110,Cs2RuAuF6,-2.102339842455379
mp-17546,Cs2RuO4,-1.7420590517733987
mp-540703,Cs2S,-1.181694625492098
mp-1079600,Cs2S3,-1.205059914920259
mp-1193140,Cs2S5,-1.0935416989608993
mp-1188254,Cs2S5O,-1.1977271723720366
mp-1213923,Cs2S5O12,-1.6702179885645412
mp-989517,Cs2SBrCl6,-1.2551398476036293
mp-989521,Cs2SCl6F,-1.3787468682226296
mp-505782,Cs2SO4,-2.3687525466394708
mp-572332,Cs2Sb2OF10,-2.8621826470375864
mp-1078965,Cs2Sb2Pd,-0.4842427214827588
mp-1080614,Cs2Sb2Pt,-0.473429221482759
mp-1213742,Cs2Sb2SO5F6,-2.285850550147893
mp-27146,Cs2Sb4S7,-0.9168036423731772
mp-1226852,Cs2Sb8S13,-0.807197640662014
mp-1113393,Cs2SbAuBr6,-1.0014291577413794
mp-1112926,Cs2SbAuCl6,-1.5274408836973792
mp-1113146,Cs2SbAuF6,-2.4018885234553795
mp-1112922,Cs2SbAuI6,-0.7624188727413792
mp-28269,Cs2SbBr6,-1.1578359433237546
mp-1184201,Cs2SbCl6,-1.7689362749415325
mp-1214796,Cs2SbF5,-2.9375741966704743
mp-1113451,Cs2ScAgBr6,-1.5224185542413793
mp-1112622,Cs2ScAgCl6,-2.1392238471973792
mp-1113115,Cs2ScAgF6,-3.2426107469553798
mp-1112938,Cs2ScAgI6,-1.166393482241379
mp-1112631,Cs2ScAuBr6,-1.4030959332413793
mp-1113213,Cs2ScAuCl6,-2.003425785197379
mp-1112595,Cs2ScAuF6,-3.0407675849553795
mp-1112923,Cs2ScAuI6,-1.0743121532413789
mp-1113181,Cs2ScCuCl6,-2.085998644197379
mp-1112591,Cs2ScCuF6,-3.14833173895538
mp-1112630,Cs2ScHgBr6,-1.455850186241379
mp-1113294,Cs2ScHgCl6,-2.05866734519738
mp-1112899,Cs2ScHgI6,-1.116965523241379
mp-1113520,Cs2ScInBr6,-1.5847867325747125
mp-1113067,Cs2ScInCl6,-2.2058603275307136
mp-1113138,Cs2ScInF6,-3.355674974288712
mp-1113068,Cs2ScInI6,-1.2215739025747123
mp-1112493,Cs2ScTlBr6,-1.6241255427413792
mp-1112000,Cs2ScTlCl6,-2.24612491669738
mp-1112337,Cs2ScTlF6,-3.3931901114553797
mp-1112484,Cs2ScTlI6,-1.2586712717413793
mp-1011695,Cs2Se,-1.0502834203358475
mp-7449,Cs2Se3,-0.821039440639009
mp-541055,Cs2Se5,-0.6082074207689345
mp-27830,Cs2SeCl6,-1.551490835618616
mp-989544,Cs2SeClF6,-2.270567165140754
mp-562442,Cs2SeO4,-1.82022508085822
mp-995230,Cs2Si(HO2)2,-2.1790513966281986
mp-1182737,Cs2Si(S2O7)3,-2.13790375926796
mp-562345,Cs2Si2O5,-2.9062488119348666
mp-542550,Cs2Si2Se5,-0.8622258167091716
mp-554359,Cs2Si3SnO9,-2.8874041460775866
mp-573721,Cs2SiAs2,-0.4530924214827586
mp-1226151,Cs2SiB4O9,-2.8849792387706534
mp-4047,Cs2SiF6,-3.458475567728198
mp-505734,Cs2SiO3,-2.6228994910272996
mp-8932,Cs2SiP2,-0.4682950683399021
mp-697078,Cs2SiP4(HO7)2,-2.5994639430750097
mp-1103520,Cs2SiS3,-1.4752275499335497
mp-637251,Cs2SiSe4,-0.8794920681126851
mp-1112939,Cs2SmAgCl6,-2.1954839734473794
mp-1112920,Cs2SmAuCl6,-2.056594023447379
mp-1111449,Cs2SmCuCl6,-2.140284261447379
mp-561641,Cs2Sn(AuS2)2,-1.0041223754070885
mp-540707,Cs2Sn(GeO3)3,-2.18099448491092
mp-505233,Cs2Sn(H2N)6,-0.4854824016730377
mp-1193049,Cs2Sn(HO2)6,-1.1976705173397055
mp-561185,Cs2Sn2Hg3S8,-0.876084734327586
mp-540796,Cs2Sn2O3,-1.7341082051662566
mp-1195304,Cs2Sn3(SbS5)2,-0.9597394881199296
mp-1226719,Cs2Sn4Se9O,-0.443181073969221
mp-8934,Cs2SnAs2,-0.4340718404827587
mp-568403,Cs2SnAs2Se9,-0.4451473160541103
mp-641923,Cs2SnBr6,-1.2608691463793105
mp-608555,Cs2SnCl6,-1.9084793952193104
mp-7297,Cs2SnF6,-3.0641490349504212
mp-27636,Cs2SnI6,-0.9163982352681992
mp-861243,Cs2SnO3,-1.9143977668606318
mp-505141,Cs2SnS14,-0.8790845348111049
mp-1103379,Cs2SnSe3,-0.9324965805325072
mp-28877,Cs2SnTe4,-0.6270469335591129
mp-866617,Cs2Sr2(CO3)3,-2.4760717224946127
mp-1019609,Cs2Sr2Li3B3(PO4)6,-2.920429730756774
mp-753801,Cs2Sr2O3,-2.213062786594828
mp-621930,Cs2SrN12,-0.4624765515649187
mp-14355,Cs2SrP2O7,-2.920865340870792
mp-19411,Cs2SrV4O12,-2.576881246969149
mp-569879,Cs2Ta6PbCl18,-1.782774356336807
mp-1112334,Cs2TaAgBr6,-1.0462316452413796
mp-1113222,Cs2TaAgCl6,-1.6532396661973792
mp-1114070,Cs2TaAgF6,-2.78031904995538
mp-1112935,Cs2TaAgI6,-0.7228775852413794
mp-15218,Cs2TaAgS4,-1.4167896954579744
mp-1113212,Cs2TaAuF6,-2.838610897955379
mp-569885,Cs2TaCl6,-2.0558411213304217
mp-1112910,Cs2TaCuBr6,-0.9857551042413796
mp-1113336,Cs2TaCuCl6,-1.5962252741973793
mp-1112879,Cs2TaCuI6,-0.6561870542413789
mp-1112610,Cs2TaHgF6,-2.88939703995538
mp-36254,Cs2TaS6,-0.941564167420978
mp-1112483,Cs2TaTlF6,-2.7753058344553785
mp-655613,Cs2Tb6Te7N2,-1.5367184327749286
mp-1112937,Cs2TbAgCl6,-2.2069440045307127
mp-1112921,Cs2TbAuCl6,-2.0673953465307133
mp-1113207,Cs2TbCuCl6,-2.1550030515307133
mp-1213718,Cs2TbO3,-2.300026947416189
mp-1183855,Cs2Tc2O5,-1.5868158487404207
mp-1205840,Cs2TcCl6,-1.7819692924415331
mp-1079364,Cs2TcF6,-2.8741637255059778
mp-1206848,Cs2TcI6,-0.7929916680459768
mp-1203879,Cs2Te(H3O5)2,-1.1044141966649363
mp-624572,Cs2Te(MoO4)3,-2.0724764837452105
mp-581150,Cs2Te10Mo9,-0.4268687784482745
mp-505464,Cs2Te13,-0.2579757714942526
mp-504924,Cs2Te2O5,-1.7589495415181997
mp-505634,Cs2Te3,-0.7410698534827584
mp-574138,Cs2Te3As,-0.6189603545689657
mp-1203081,Cs2Te4O9,-1.6906733085775858
mp-23465,Cs2TeCl6,-1.707633785774866
mp-1201918,Cs2TeH6(ClO3)2,-1.5863854543031646
mp-1215093,Cs2TeH6SeO10,-1.5583283763863776
mp-614803,Cs2TeO3,-1.8429545551939657
mp-669353,Cs2TeO4,-1.8135357528448268
mp-561647,Cs2TeOF4,-2.6323054516779743
mp-1229058,Cs2TeP2H8O13,-1.907543331611904
mp-1199233,Cs2TePO10,-1.2591582676469042
mp-1202720,Cs2TeS3,-1.0762352959752164
mp-1213764,Cs2TeSO10,-1.245062486355449
mp-1192509,Cs2Th(AsO4)2,-2.5350377974933687
mp-640389,Cs2Th(PS3)3,-1.3287628121936583
mp-1204133,Cs2Th(Si2O5)3,-3.3259916472359903
mp-1204762,Cs2Th2P2Se13,-0.9109022820878041
mp-27501,Cs2ThCl6,-2.5607153846637547
mp-10488,Cs2Ti(AgS2)2,-1.3033451461478296
mp-10489,Cs2Ti(CuSe2)2,-0.96369980649505
mp-16805,Cs2Ti(GeO3)3,-2.4510688936886984
mp-14864,Cs2Ti(PO4)2,-2.9143512173743207
mp-6748,Cs2Ti(Si2O5)3,-3.2136174830346023
mp-1226157,Cs2Ti(WO4)3,-2.5117506796711364
mp-680170,Cs2Ti2S9,-1.439449854280228
mp-27828,Cs2TiCl6,-2.2307921231822734
mp-1195388,Cs2TiCu3F12,-2.7000229449089144
mp-1206662,Cs2TiI6,-1.1293657310089398
mp-1178403,Cs2TiO3,-2.7015483279717443
mp-1203715,Cs2TiP4O13,-2.8431878819450964
mp-3247,Cs2TiS3,-1.7096628168779933
mp-705308,Cs2TiV3(PO6)3,-2.704136444092927
mp-1113444,Cs2TlAgBr6,-1.0405433787413791
mp-1113442,Cs2TlAgCl6,-1.5722972426973794
mp-1113150,Cs2TlAgF6,-2.4040854254553796
mp-1112933,Cs2TlAgI6,-0.7891055357413794
mp-1112112,Cs2TlAsBr6,-1.1112889332413798
mp-1112502,Cs2TlAsCl6,-1.6605514101973793
mp-1112503,Cs2TlAsF6,-2.6270180889553787
mp-1112544,Cs2TlAsI6,-0.8400441902413789
mp-1112500,Cs2TlAuBr6,-0.9815943037413792
mp-1113536,Cs2TlAuCl6,-1.4847465916973797
mp-1112499,Cs2TlAuF6,-2.232598159455379
mp-1113379,Cs2TlAuI6,-0.7601020477413793
mp-1112498,Cs2TlBiBr6,-1.2365527462413797
mp-1112109,Cs2TlBiCl6,-1.7932807221973792
mp-557664,Cs2TlBiF6,-2.7354506739553797
mp-1112501,Cs2TlBiI6,-0.9487142572413796
mp-541696,Cs2TlCl5,-1.756992065151724
mp-1196614,Cs2TlCl5O,-1.559801967218199
mp-1113558,Cs2TlCuBr6,-1.027677519741379
mp-1113205,Cs2TlCuCl6,-1.5680968806973792
mp-1112637,Cs2TlCuF6,-2.397691720455379
mp-628819,Cs2TlFeF6,-2.7942444504553787
mp-1112492,Cs2TlGaBr6,-1.2225372937413799
mp-1112002,Cs2TlGaCl6,-1.81341891869738
mp-989558,Cs2TlGaF6,-2.8718199614553797
mp-989553,Cs2TlGaH6,-0.10234229991337926
mp-1112110,Cs2TlGaI6,-0.9011534767413792
mp-1213821,Cs2TlHCl5,-1.349316596648199
mp-1112900,Cs2TlHgBr6,-1.0681277107413791
mp-1113292,Cs2TlHgCl6,-1.5875814396973795
mp-1113141,Cs2TlHgF6,-2.38653655845538
mp-1113282,Cs2TlHgI6,-0.8169401347413793
mp-996944,Cs2TlInBr6,-1.2649758160747129
mp-1112490,Cs2TlInCl6,-1.8421615830307123
mp-989537,Cs2TlInF6,-2.8286772297887124
mp-996945,Cs2TlInH6,-0.07385924624671211
mp-1112107,Cs2TlInI6,-0.9532323120747124
mp-560710,Cs2TlMoF6,-2.81224618245538
mp-1112343,Cs2TlPdF6,-2.34446060445538
mp-1112340,Cs2TlRhF6,-2.4625923164553787
mp-1112339,Cs2TlRuF6,-2.441343991955379
mp-1112108,Cs2TlSbBr6,-1.1885855622413792
mp-1112003,Cs2TlSbCl6,-1.741521397197379
mp-1112551,Cs2TlSbF6,-2.717883583955379
mp-1112105,Cs2TlSbI6,-0.9066415172413794
mp-989560,Cs2TlSiH6,-0.12417020991337965
mp-557533,Cs2TlVF6,-2.880288533455379
mp-1113440,Cs2TmAgCl6,-2.209254262197379
mp-1077991,Cs2TmCl4,-2.2265672750648275
mp-1213743,Cs2TmCl5,-2.567992755151724