task_id,composition,formation_energy_per_atom
mp-1079635,GaMo2C,-0.10542447968749967
mp-2377,GaMo3,-0.14930951124999936
mp-1224843,GaMo4(SeS)4,-0.9031975062019232
mp-15862,GaMo4CS8,-0.6422977743750005
mp-1197441,GaN2OF5,-0.4012171463288886
mp-541950,GaN5O14,-0.9900903379699996
mp-1192081,GaNCl4,-0.17290875881999965
mp-1941,GaNi,-0.3577617249999996
mp-1212709,GaNi10P3,-0.45864771260204
mp-570904,GaNi2,-0.3216455549999999
mp-541269,GaNi2BO5,-1.8843956750462958
mp-1224885,GaNi2Ge3,-0.2334804916666672
mp-1224791,GaNi2Pt,-0.3753528700000004
mp-815,GaNi3,-0.2791361974999997
mp-1206991,GaNi3C,-0.06867529774999995
mp-1224915,GaNi4Ge3,-0.3079832606249999
mp-1224860,GaNi6Ge,-0.28681779687499986
mp-1194536,GaNi9B8,-0.252590394351851
mp-1183983,GaNiO3,-0.4995257307499997
mp-1096493,GaNiPt2,1.995359085
mp-866037,GaNiRh2,-0.33679201500000033
mp-1183990,GaO,-1.392592728125
mp-1212646,GaO2,-1.6255178474999994
mp-1181293,GaO3,-0.8211001915624996
mp-541857,GaP(H2O3)2,-1.9763361337810708
mp-1225237,GaP2C3N2O8F,-1.0183380618521003
mp-1202565,GaP2H15C5(NO4)2,-1.123820648548355
mp-29817,GaP2I9,-0.2375430719196429
mp-1205202,GaP2O9,-1.6808700032390869
mp-24465,GaP3(HO5)2,-2.3818109260105365
mp-683966,GaP3(NCl3)3,-1.10816833119741
mp-1224931,GaPH11C3Cl,-0.3797304403807561
mp-1198682,GaPH9C3Cl3O,-0.8284300123334916
mp-1181318,GaPNO5,-1.806579835096608
mp-677335,GaPO4,-2.607459562857143
mp-1025301,GaPPd5,-0.5623692974489793
mp-1025270,GaPPt5,-0.4562057174489799
mp-30979,GaPS4,-0.8579654434821423
mp-1184014,GaPb3,0.04172243000000009
mp-1212935,GaPbF5,-2.851547741742857
mp-1078526,GaPd,-0.6593911287500003
mp-1869,GaPd2,-0.638204734166667
mp-1184209,GaPd3,-0.4549265
mp-1025551,GaPt,-0.6375681162499998
mp-2223,GaPt2,-0.5415777750000004
mp-862621,GaPt3,-0.4609388624999991
mp-1017563,GaPt3C,0.3407022862500007
mp-1178335,GaPtO2,-1.5476094206249993
mp-1224777,GaRe,0.11509606125000005
mp-561379,GaRe(Cl3O)2,-1.528142109206
mp-650814,GaRe2(CO)9,-0.9901335902976192
mp-631572,GaReAs,0.993443372500001
mp-1097303,GaReGe2,2.3378125831250003
mp-1096383,GaReTc2,3.650362500625
mp-2444,GaRh,-0.6843403949999995
mp-1184265,GaRh3,-0.32246961249999995
mp-22320,GaRu,-0.3126478225000007
mp-1212631,GaS2NO8,-1.292912130875416
mp-560637,GaS5N5Cl4,-0.5274852227668333
mp-1194704,GaSb2(TeCl2)2,-0.956954101171111
mp-1184224,GaSb3,0.19223748124999984
mp-1224914,GaSb3Pb4O13,-1.8656085476785715
mp-27735,GaSbCl6,-1.4416005849450002
mp-1224786,GaSbO4,-2.069976618333333
mp-680721,GaSe2,-0.18159817517361104
mp-567956,GaSe2NCl6,-0.8397593059127495
mp-569902,GaSe3N2Cl5,-0.5927903606219318
mp-23376,GaSeBr7,-0.4860333965104171
mp-16338,GaSi(MoS2)4,-0.7976685058928581
mp-568873,GaSi2As(H3C)8,-0.293311907413333
mp-1184252,GaSi3,0.4511606199999996
mp-1079836,GaSi3C3N,-0.3336755198287493
mp-604970,GaSi4H30C10Cl,-0.3323652896600001
mp-1182730,GaSiC4N,0.700602970374286
mp-1092268,GaSiCN,-0.2146160727825004
mp-1224834,GaSiNi6,-0.37103573
mp-1184206,GaSiO3,-2.060014824750001
mp-1096427,GaSiTc2,2.7357772675
mp-1184266,GaSn3,0.04897471625000005
mp-1184243,GaSnO3,-1.532117059750001
mp-1097411,GaSnRu2,2.5801815612500003
mp-1224842,GaSnSe2,-0.30113158054687483
mp-1093867,GaTc2Ge,2.68067764875
mp-14432,GaTe4(MoSe)4,-0.4497096964903842
mp-27449,GaTeCl,-0.9137534002533332
mp-29541,GaTeI7,-0.307085496111111
mp-1184220,GaTeO3,-1.2085990687500008
mp-558984,GaTeO3F,-2.077858223740001
mp-643271,Gd(Al10Cr)2,-0.1610744973913046
mp-21195,Gd(Al2Cr)4,-0.20916399076923128
mp-973553,Gd(Al2Cu)4,-0.3068644615384616
mp-568693,Gd(Al3Ni)3,-0.5146443657692299
mp-1192913,Gd(Al5Ru)2,-0.5136823584615382
mp-1104806,Gd(AlC)3,-0.2581520401785714
mp-1225943,Gd(AlCr)6,0.39163023307692296
mp-1225036,Gd(AlCu)6,-0.3519721715384607
mp-754689,Gd(AlGe)2,-0.4271137920000008
mp-8651,Gd(AlSi)2,-0.3957907019999993
mp-1080176,Gd(BC)2,-0.44081523816666535
mp-1204314,Gd(BO2)3,-3.1902490580625
mp-1202527,Gd(BO2)6,-2.6552190947368444
mp-1079837,Gd(BOs)2,-0.4618522386666669
mp-1106078,Gd(BRh)4,-0.5688227696296291
mp-1095164,Gd(BRu)2,-0.529924415666666
mp-756698,Gd(BiO2)4,-1.998327502307693
mp-672360,Gd(C2N3)3,-0.19855474493249936
mp-1181407,Gd(CO3)2,-1.9952649016666684
mp-1196375,Gd(Cd10Ni)2,-0.09281376500000002
mp-1212754,Gd(ClO4)3,-1.0907880899862503
mp-645286,Gd(Co2B)6,-0.34439069105263204
mp-610530,Gd(CoB)2,-0.5327586366666666
mp-1181496,Gd(CoB)4,-0.4755862496296304
mp-542988,Gd(CoGe)2,-0.6014183340000002
mp-542985,Gd(CoSi)2,-0.8056723320000003
mp-610787,Gd(CrSi)2,-0.4131935279999979
mp-20806,Gd(CuGe)2,-0.5259774879999988
mp-20707,Gd(CuO2)2,-2.0511933821428565
mp-1226384,Gd(CuS)3,-1.1443977231696425
mp-20677,Gd(CuSi)2,-0.6096623579999999
mp-1095106,Gd(CuSn)2,-0.3663198529999988
mp-1225229,Gd(Fe5Si)2,-0.2451977230769229
mp-637965,Gd(FeGe)2,-0.43695865799999895
mp-1212761,Gd(FeP3)4,-0.5988838868067227
mp-542986,Gd(FeSi)2,-0.6576574420000014
mp-1212901,Gd(Ga2Fe)4,-0.2766622353846158
mp-1225497,Gd(GaFe)6,-0.013946578461538085
mp-1102792,Gd(Ge2Rh3)2,-0.7421975827272731
mp-22181,Gd(GePd)2,-0.804864542
mp-22187,Gd(GeRh)2,-0.8895892419999996
mp-24073,Gd(HO)3,-2.2831036099442863
mp-510661,Gd(IO3)3,-1.4874248929807692
mp-22563,Gd(LuS2)3,-2.4672329304375014
mp-1185278,Gd(Mg4Al3)4,-0.059101645517241626
mp-20837,Gd(MnGe)2,-0.4785505659999984
mp-20448,Gd(MnSi)2,-0.4995776739999983
mp-1203247,Gd(NO3)3,-1.5458332323761528
mp-1213527,Gd(NO5)3,-0.7371735232047366
mp-1204079,Gd(Ni2B)6,-0.3917057710526324
mp-582433,Gd(NiAs)2,-0.7785127340000002
mp-646399,Gd(NiGe)2,-0.6829053600000009
mp-21473,Gd(NiP)2,-1.0115441048571427
mp-569296,Gd(NiSb)2,-0.5396054500000005
mp-579125,Gd(PO3)3,-3.0120409129945065
mp-672215,Gd(PRu)2,-1.0306571708571457
mp-20102,Gd(PdO2)2,-1.9748253328571417
mp-1105253,Gd(Re2Si)2,-0.4622780585714281
mp-1199105,Gd(ReO5)3,-1.777197727565788
mp-21287,Gd(SiAg)2,-0.4090192519999995
mp-22615,Gd(SiAu)2,-0.584321576
mp-20700,Gd(SiIr)2,-1.0765327580000004
mp-20956,Gd(SiNi)2,-0.8391766739999994
mp-1225143,Gd(SiNi5)2,-0.3872166423076929
mp-21408,Gd(SiOs)2,-0.7199076139999988
mp-19753,Gd(SiPd)2,-0.939492242
mp-637220,Gd(SiPt)2,-1.0957094589999996
mp-21240,Gd(SiRh)2,-1.1124526239999994
mp-569302,Gd(SiRu)2,-0.9061839980000002
mp-21869,Gd(Sn3Ru2)2,-0.32833120727272685
mp-1204825,Gd(Zn10Co)2,-0.1666082208695652
mp-556437,Gd10S14O,-2.567435531325
mp-646008,Gd10S19,-2.2353432726616402
mp-1213266,Gd12Co6Pb,-0.23378825368420944
mp-651087,Gd13Ge6O31F,-3.356263158136077
mp-569472,Gd2(Al3Ir)3,-0.8551681875000006
mp-1213364,Gd2(Al3Rh)3,0.054358374999999626
mp-680207,Gd2(FeB)7,-0.48081049338541604
mp-866782,Gd2(Ga3Co)3,-0.4747406496428571
mp-1213497,Gd2(Ga3Ir)3,-0.6640893021428563
mp-554558,Gd2(MoO4)3,-2.7080599939705863
mp-779225,Gd2(WO4)3,-2.736866324411765
mp-582406,Gd2(Zn2Ge)3,-0.38747435409090775
mp-1184381,Gd2AgAu,-0.5621253800000012
mp-1184352,Gd2AgHg,-0.3987554925000003
mp-1184371,Gd2AgIr,-0.5415227900000001
mp-1006068,Gd2AgRh,-0.5240251025000013
mp-1184415,Gd2AgRu,-0.2962938687500003
mp-1190462,Gd2Al3Ge4,-0.4520027511111111
mp-1078369,Gd2Al4CoGe2,-0.6419529755555561
mp-638442,Gd2Al6Si4Au,-0.3973497238461531
mp-637030,Gd2Al6Si4Pt,0.1550653269230771
mp-1184403,Gd2AlCd,-0.3579579687500001
mp-1225145,Gd2AlFe3,-0.09787813833333203
mp-20816,Gd2AlGe2,-0.7324965349999986
mp-1190055,Gd2AlGe6,-0.4247705027777779
mp-1071506,Gd2AlNi2,0.7297543000000004
mp-1184427,Gd2AlZn,-0.3696842062499997
mp-767404,Gd2As4O11,-2.3832642511029416
mp-767401,Gd2AsO5,-3.1144799495312494
mp-557726,Gd2Au5F21,-2.228059765535357
mp-554636,Gd2B(OF)3,-3.8917809805818524
mp-28702,Gd2B3C2,-0.4702631496428568
mp-31369,Gd2B4O9,-3.2750546988611102
mp-28366,Gd2B5,-0.5789736876190474
mp-1202304,Gd2B6Os,-0.5906343000000018
mp-650715,Gd2Be2GeO7,-3.263409193229168
mp-1212449,Gd2Be2SiO7,-3.5560137994791674
mp-1070662,Gd2BiO2,-2.9271906275000013
mp-618813,Gd2Br3,-1.5204844590000008
mp-505435,Gd2Br3N,-1.927573217479999
mp-1224869,Gd2C,-0.24353099624999905
mp-1025163,Gd2C(NO)2,-2.4354018451442854
mp-1189998,Gd2C3,-0.2211123802500012
mp-28522,Gd2CBr,-0.9490284596875008
mp-28638,Gd2CCl,-1.2198417680024995
mp-29394,Gd2CCl2,-1.7000265330540003
mp-8301,Gd2CF2,-2.529055422226
mp-28724,Gd2CI,-0.7505889371875014
mp-1184362,Gd2CdHg,-0.40791699625
mp-1184514,Gd2CdIn,-0.4249848045833336
mp-754093,Gd2CdO4,-3.103505900714286
mp-603326,Gd2CdPd2,-0.7758613490000001
mp-677075,Gd2CdS4,-1.9497651701785708
mp-677132,Gd2CdSe4,-1.4245951849107144
mp-1078829,Gd2Cl3,-2.1842445599560008
mp-1201816,Gd2Co17,-0.0769305302631581
mp-1206201,Gd2Co2I,-0.604973234000002
mp-1224781,Gd2CoB3,-0.3579114483333352
mp-1225255,Gd2CoNi3,-0.2935542816666678
mp-1080595,Gd2CoSi2,-0.7354126770000008
mp-1190470,Gd2CoTe2(SO7)2,-2.404614926934524
mp-1078248,Gd2Cr2C3,-0.2655648351785719
mp-1184487,Gd2Cr2O5,-2.7492575540277784
mp-1224730,Gd2CrSbO7,-3.013911265795453
mp-1212638,Gd2Cu(GeO3)4,-2.503283955000001
mp-1212657,Gd2Cu(GeO4)2,-2.6901266788461533
mp-17465,Gd2Cu(SeO3)4,-2.0005374023355267
mp-1184435,Gd2CuAu,-0.5041250575000014
mp-4860,Gd2CuO4,-3.0382089078571433
mp-1184428,Gd2CuOs,-0.1902780812499998
mp-1184422,Gd2CuRu,-0.2736993912500001
mp-1191833,Gd2Fe12P7,-0.7023325126190473
mp-1198327,Gd2Fe14B,-0.10511393112744992
mp-1197388,Gd2Fe14C,0.0196472905147068
mp-1196805,Gd2Fe17,-0.00982084078947459
mp-1191346,Gd2Fe17C3,-0.07440612437500249
mp-1191093,Gd2Fe17H3,-0.08515466663000124
mp-1225193,Gd2Fe17N2,-0.12379563927428687
mp-567844,Gd2Fe2I,-0.5198416609999995
mp-1224923,Gd2Fe5Si8,-0.555602800666666
mp-1224759,Gd2FeSbO7,-2.3066979030681822
mp-1102482,Gd2Ga8Co,-0.4733734399999993
mp-1184305,Gd2GaAg,-0.4494351175000002
mp-1224682,Gd2GaSbO7,-2.98155175034091
mp-1196136,Gd2Ge(BO4)2,-3.1883202444871794
mp-581229,Gd2Ge2O7,-3.0083623574621203
mp-1206452,Gd2GeBr2,-1.4666566430000003
mp-1224706,Gd2GeMoO8,-2.94550358125
mp-561584,Gd2GeO5,-3.3063546376562494
mp-1213333,Gd2Hf2(MoO4)7,-2.653716806666666
mp-1190245,Gd2Hf2O7,-4.004378577159091
mp-754041,Gd2HfO5,-3.95064688828125
mp-1195809,Gd2HfS5,-2.308030805664063
mp-756040,Gd2HgO4,-2.9907006392857163
mp-638079,Gd2In,-0.37420998611111145
mp-1224988,Gd2InAg,-0.3923694008333349
mp-639160,Gd2InGe2,-0.7117660596666682
mp-1184476,Gd2InHg,-0.4435240133333336
mp-1076993,Gd2InNi2,-0.4915065706666667
mp-20654,Gd2InPd2,-0.8416336176666647
mp-1225008,Gd2InSbO7,-2.9288539647348486
mp-1184354,Gd2IrAu,-0.7705074175000011
mp-866029,Gd2IrPd,-0.8262433950000005
mp-865436,Gd2IrRh,-0.7798161900000018
mp-1184393,Gd2IrRu,-0.5084713762500002
mp-865078,Gd2Mg,-0.039544766666666696
mp-1184317,Gd2Mg2O5,-3.1988757762499995
mp-1184333,Gd2MgAl,-0.25901814500000064
mp-1184409,Gd2MgCd,-0.20746264625000066
mp-19945,Gd2MgGe2,-0.7609083079999991
mp-864748,Gd2MgIn,-0.32766906333333345
mp-1188236,Gd2MgIrO6,-2.9222096232499988
mp-1205657,Gd2MgNi2,-0.3525664680000006
mp-1212711,Gd2MgPtO6,-2.89657469775
mp-1184399,Gd2MgRu,-0.15095736874999946
mp-1232233,Gd2MgS4,-2.2422676432142867
mp-1232144,Gd2MgSe4,-1.6290212388392868
mp-1205813,Gd2MgSi2,-0.6944276830000007
mp-865316,Gd2MgTl,-0.2607691387499997
mp-1225903,Gd2Mn(GeO3)4,-2.6499615221557886
mp-1193010,Gd2Mn17C3,-0.0871766857386353
mp-1225126,Gd2Mn3Sb3O14,-2.205396514335454
mp-1224833,Gd2MnCoO6,-2.640382504345999
mp-636619,Gd2MnGa6,-0.4622454822222208
mp-1212655,Gd2MnNiO6,-2.739675770846
mp-674348,Gd2MnS4,-1.9380180223214285
mp-1224711,Gd2MnSbO7,-2.926599686337273
mp-583574,Gd2Mo(SeO4)3,-2.2699323942100693
mp-12039,Gd2Mo2C3,-0.2944948308928567
mp-642754,Gd2Mo2O7,-2.9516758407954544
mp-566780,Gd2Mo4O15,-2.5719258126388893
mp-704238,Gd2Mo5O18,-2.4811398831
mp-583774,Gd2MoO6,-3.1887517847222213
mp-28279,Gd2NCl3,-2.4683098361933333
mp-782011,Gd2Nb2N2O5,-2.8298490114554538
mp-1201421,Gd2Nb2S7O30,-2.3892989544131087
mp-1196603,Gd2Nb3Ge4,-0.7110320383333336
mp-1225182,Gd2NbGaO7,-3.2876425953409085
mp-1224935,Gd2NbInO7,-3.2332333083712137
mp-580102,Gd2Ni17,-0.1837912723684204
mp-1206945,Gd2Ni2Sn,-0.5720751890000002
mp-669713,Gd2Ni7,-0.3646384355555562
mp-1232425,Gd2NiIr,-0.5754080625000011
mp-1207225,Gd2NiO4,-2.866452816428573
mp-1212708,Gd2NiPtO6,-2.4649690002499995
mp-1184370,Gd2NiRu,-0.3039967287500005
mp-1212785,Gd2NiRuO6,-2.5637508062500034
mp-772787,Gd2P4O13,-3.156583437359023
mp-1225969,Gd2P7Rh12,-0.9235651111904768
mp-676498,Gd2PbS4,-1.961681781607144
mp-1185587,Gd2PdRh,-0.8128366724999996
mp-866052,Gd2PdRu,-0.5689739287499993
mp-1025361,Gd2Re2Si2C,-0.6033874362499988
mp-1198764,Gd2Re3Si5,-0.5880065492499995
mp-864979,Gd2ReC2,-0.3592677539999997
mp-15922,Gd2ReO5,-3.207986872343749
mp-505216,Gd2Ru2O7,-2.559624313522725
mp-1184387,Gd2RuRh,-0.5303878912500011
mp-561849,Gd2S2O,-3.0068918888750007
mp-1202688,Gd2S3O20,-1.5074348872874987
mp-865182,Gd2SCl4,-2.633940624586072
mp-4805,Gd2SO2,-3.5678250373125
mp-1224680,Gd2SbO2,-2.9432699735000014
mp-1213448,Gd2Sc3Ge4,-0.8982444138888894
mp-1213579,Gd2Sc3Si4,-0.7993782200000005
mp-1224704,Gd2ScNbO7,-3.688144162613638
mp-669388,Gd2Se2O,-2.6088296961875
mp-13973,Gd2SeO2,-3.34541459821875
mp-1194754,Gd2SeOF2,-3.623635857315069
mp-13775,Gd2Si2O7,-3.6484535130681817
mp-1224874,Gd2Si3,-0.4536417900000004
mp-1224775,Gd2Si3Ni,-0.693479343333332
mp-1205044,Gd2Si4CN6,-1.35611629831
mp-542831,Gd2SiO5,-3.752159426093749
mp-16788,Gd2SiTeO4,-3.2228241853125006
mp-17064,Gd2Sn2O7,-3.008682057159092
mp-1080661,Gd2SnAu2,-0.8242172470000014
mp-561122,Gd2SnS5,-1.841819946914064
mp-542515,Gd2Te4O11,-2.291830642867648
mp-16035,Gd2TeO2,-3.207762546500001
mp-17583,Gd2TeO6,-2.985281801944444
mp-1226218,Gd2Ti12(CuO4)9,-2.7238621899152533
mp-5302,Gd2Ti2O7,-3.7439644488257575
mp-1224741,Gd2TiCuO6,-3.1773750029166687
mp-557626,Gd2TiO5,-3.839020915989584
mp-1105276,Gd2TiZnO6,-3.3804768384166666
mp-579628,Gd2Tl,-0.29658635499999875
mp-1184366,Gd2TlAg,-0.3431100637500002
mp-866608,Gd2TlCd,-0.19107581500000048
mp-1184448,Gd2TlHg,-0.4446059412499999
mp-1184390,Gd2TlZn,-0.35148525249999985
mp-1202826,Gd2US5,-2.2245236459765625
mp-1198013,Gd2USe5,-1.5762826100585947
mp-773164,Gd2V2O7,-3.192325892159092
mp-1225231,Gd2VFeO6,-3.086286906250001
mp-773185,Gd2W2O9,-2.917494770480768
mp-771541,Gd2W4O15,-2.5933141032738085
mp-565757,Gd2WO6,-3.2633943566666663
mp-1224733,Gd2ZnAg,-0.3285502187499993
mp-1184388,Gd2ZnGa,-0.4793946187500016
mp-1184500,Gd2ZnHg,-0.4046843112499996
mp-1184470,Gd2ZnIn,-0.4091560295833325
mp-1212755,Gd2ZnPtO6,-2.61113571825
mp-1184416,Gd2ZnRh,-0.5594012187500006
mp-866217,Gd2ZnRu,-0.3148594449999997
mp-1190458,Gd2ZnTe2(SO7)2,-2.4366211457440485
mp-757233,Gd2Zr2O7,-3.859672772613635
mp-1200071,Gd2ZrSe5,-1.6690655734960949
mp-580327,Gd3(AlNi3)2,-0.5228463522727277
mp-1178246,Gd3(BiO4)2,-2.8796816769230764
mp-1224782,Gd3(BrO3)2,-2.3059848302272727
mp-1078863,Gd3(CoGe2)2,-0.7003602544444445
mp-621619,Gd3(CuGe)4,-0.6151298063636365
mp-1191116,Gd3(GaNi3)2,-0.5135631981818201
mp-28826,Gd3(MnC3)2,-0.25812350886363594
mp-1213489,Gd3(P3Pd10)2,-0.7145484352709363
mp-1192140,Gd3(SiNi3)2,-0.6201487063636351
mp-1185588,Gd3Ag,-0.009547129999999626
mp-1184417,Gd3Al,-0.1944362424999984
mp-1199765,Gd3Al2(Ni2H3)3,-0.4464284496289999
mp-14133,Gd3Al5O12,-3.662462701124998
mp-580539,Gd3AlC,-0.32857246574999976
mp-1069273,Gd3AlN,1.0414101235240012
mp-1192190,Gd3AlVS7,-2.0477744915364595
mp-1192219,Gd3AlZnS7,-2.0086684502864567
mp-768273,Gd3As5O12,-2.5467123580000006
mp-768254,Gd3AsO7,-3.2784213387499985
mp-1184461,Gd3Au,-0.2614828349999989
mp-10559,Gd3AuO6,-3.0977145217499995
mp-669375,Gd3B2(O2F)3,-3.7408490221002366
mp-1190670,Gd3B7W,-0.5242338465151526
mp-1212672,Gd3BBr3,-1.2789213438095235
mp-565583,Gd3BWO9,-3.3449236123511894
mp-1191816,Gd3BeCrS7,-1.9617793152864589
mp-1224726,Gd3Bi(Ru2O7)2,-2.311420637840909
mp-1103896,Gd3BiO3,-3.02765894625
mp-28133,Gd3CCl3,-1.791361550147143
mp-1104611,Gd3CI3,-1.023260503392857
mp-1184421,Gd3Cd,-0.1147337012499996
mp-680293,Gd3Co29(Si2B5)2,-0.4120676660144931
mp-1202982,Gd3Co4Ge13,-0.4118291364999989
mp-1202112,Gd3Co4Sn13,-0.30087129400000023
mp-1226688,Gd3Cu2Te7,-0.9363098495833336
mp-1189617,Gd3Cu3Sb4,-0.7499252729999981
mp-573114,Gd3CuGeS7,-1.8367774986197918
mp-568189,Gd3CuGeSe7,-1.289721189596354
mp-1191406,Gd3CuSiS7,-1.9268681048697909
mp-641576,Gd3CuSiSe7,-1.342364730846353
mp-556782,Gd3CuSnS7,-1.8169419469531245
mp-568811,Gd3CuSnSe7,-1.2877178541796883
mp-1184431,Gd3Dy,0.06428993249999948
mp-1184453,Gd3Er,0.048195656249999885
mp-1224942,Gd3ErNi4,-0.4168655743750005
mp-585960,Gd3Fe5O12,-2.5377158520000007
mp-1189831,Gd3FeO6,-3.4004788537500006
mp-1184401,Gd3Ga,-0.2617446899999987
mp-2921,Gd3Ga5O12,-2.9441051511250014
mp-1207153,Gd3GaC,-0.39089714374999857
mp-3594,Gd3GaO6,-3.5231844587499994
mp-1197897,Gd3Ge13Ir4,-0.5105836104999995
mp-1202465,Gd3Ge13Os4,-0.3334165174999996
mp-1197955,Gd3Ge13Ru4,-0.4367116117500004
mp-1191917,Gd3GeO8,-2.845202724583332
mp-1184498,Gd3Ho,0.02794905375000134
mp-1184423,Gd3I,-0.08159703749999991
mp-1184479,Gd3In,-0.29599907833333283
mp-20501,Gd3InC,1.556401221583333
mp-637378,Gd3InN,-1.0160499311426676
mp-756715,Gd3InO6,-3.4221135530833324
mp-1200532,Gd3InS6,-2.089860742520834
mp-1184496,Gd3Lu,0.013320143750000568
mp-1213450,Gd3Lu2(GaO4)3,-3.4004318285000004
mp-1190789,Gd3MgAlS7,-2.148342580286458
mp-1225060,Gd3Mn3Ga2Si,-0.3152803644444428
mp-1191013,Gd3MnAlS7,-2.0065481569531265
mp-976437,Gd3MnB7,-0.543220528787878
mp-1191699,Gd3MnGaS7,-1.9254465744531248
mp-1204194,Gd3MoO7,-3.3849629562499994
mp-651160,Gd3NCl6,-2.5615472581940013
mp-752432,Gd3NbO7,-3.7031796403409087
mp-510057,Gd3NbS3O4,-3.072783186107955
mp-866774,Gd3Ni19B10,-0.41429644958333256
mp-567291,Gd3OsO7,-3.1575435949999995
mp-647029,Gd3P4Pd7,-0.9852861220408156
mp-19958,Gd3PbC,1.5316179282500002
mp-22077,Gd3Pd2,-0.6875025780000001
mp-1106170,Gd3Pt,-0.6685952712500001
mp-1190894,Gd3ReB7,-0.5517785690151517
mp-30137,Gd3ReO8,-3.282142551041668
mp-683963,Gd3RuO7,-3.1437985109090905
mp-647096,Gd3S3N,-2.3123108320810704
mp-1224717,Gd3SOF5,-4.03281261012625
mp-1212641,Gd3Sb4,-0.8551415057142842
mp-1188599,Gd3Sb4Au3,-0.8379361230000001
mp-505046,Gd3Sb5O12,-2.64136251475
mp-1104777,Gd3SbO3,-3.091249244107144
mp-1191117,Gd3SbO7,-3.3741584939772724
mp-555835,Gd3Sc2(GaO4)3,-2.657415986125
mp-1213017,Gd3Sc2Al3O12,-3.800540620125
mp-1224776,Gd3Sc2S7,-2.4124723157031256
mp-1213337,Gd3ScS6,-2.437403456687501
mp-1104036,Gd3Se2NO,-2.409954015116785
mp-1193201,Gd3Se3N,-1.89705369473732
mp-672292,Gd3Se4,-1.8659150113392848
mp-559447,Gd3Se4O12F,-2.4683096325282508
mp-1198316,Gd3Si2BO10,-3.5898693915104163
mp-1224744,Gd3Si2BrO8,-3.5283836564285727
mp-560513,Gd3Si2Cl5O6,-3.2201166427375005
mp-1194050,Gd3Si2S8Br,-1.832797248035713
mp-1212738,Gd3SiBr3,-1.4145634296428558
mp-1207074,Gd3SnC,-0.5949270727499993
mp-779424,Gd3TaO7,-3.815614768977272
mp-569019,Gd3Ti2MnSi3,-0.2641973698148156
mp-1212783,Gd3TiS6,-2.2899139718541663
mp-1207135,Gd3TlC,-0.404745000749999
mp-1212679,Gd3W(ClO2)3,-3.0794838967138456
mp-1184469,Gd3Y,0.05042114500000139
mp-1225082,Gd3Y(FeO3)4,-2.5928796387499986
mp-766237,Gd3Y13O24,-3.9706409845
mp-1225167,Gd3Y3Fe23,-0.042294783793105084
mp-757331,Gd3Y5O12,-3.9550433895000014
mp-752434,Gd3YO6,-3.90794249575
mp-1224710,Gd3YV4O16,-3.1913351787500006
mp-1184460,Gd3Zn,-0.04845576374999894
mp-1212534,Gd3Zn5Ge,-0.3937260822222221
mp-1196638,Gd4(GeS4)3,-1.6466224262500009
mp-1199792,Gd4(SiS4)3,-1.8414316446710528
mp-1178271,Gd4As2O9,-3.1549674395833334
mp-623092,Gd4Au2O9,-2.8149160907499984
mp-29821,Gd4B3C4,-0.40738099954545376
mp-1203805,Gd4B4O11F2,-3.5357188634665064
mp-1201615,Gd4BClO7,-3.6687839608597432
mp-1203227,Gd4C2Cl3,-1.5068412452533329
mp-1225806,Gd4Co3,-0.1209037366666648
mp-1198624,Gd4CoB13,-0.42476862314814906
mp-1224964,Gd4Cu5P7,-0.8186639078125006
mp-1225869,Gd4Fe34C3,-0.03677134064024613
mp-1189271,Gd4Ga12Pd,-0.4053419664705879
mp-866687,Gd4Ga16Co3,-0.5046105078260865
mp-1178283,Gd4Ga2O9,-3.380614858916666
mp-1200081,Gd4Ge3O13,-2.9192144493125016
mp-1192794,Gd4InIr,-0.5461136876388887
mp-1191587,Gd4MgRh,-0.3642078212499982
mp-1213042,Gd4MgRu,-0.2230624066666659
mp-1200768,Gd4Mo4O11,-2.743124600065791
mp-704325,Gd4Mo7O27,-2.6196319106907917
mp-866397,Gd4Ni13C4,-0.3158810788095239
mp-1197241,Gd4NiB13,-0.4225134617592595
mp-605707,Gd4P6H16O23,-2.276138543969942
mp-1213473,Gd4PdO7,-3.3623196732291682
mp-20831,Gd4Sb3,-1.0491260464285728