task_id,composition,formation_energy_per_atom
mp-1019543,BaCaP2O7,-3.232768258003248
mp-1102214,BaCaPb,-0.5859348475000002
mp-631512,BaCaRu2,0.8415707306250004
mp-1041343,BaCaSbF7,-3.558441775833
mp-16253,BaCaSi,-0.4170690825
mp-561050,BaCaSiO4,-3.3638661083928567
mp-11265,BaCaSn,-0.6769114899999998
mp-1041385,BaCaSnF7,-3.527725463083
mp-1046986,BaCaTi4O8,-3.1774827088690483
mp-1041344,BaCaTiF7,-3.957581517499667
mp-1095980,BaCaTl2,1.0841592781249998
mp-19484,BaCaV2O7,-2.927521141022727
mp-1044444,BaCaV4O8,-2.61606642982143
mp-1047952,BaCaVF7,-3.8087608653330007
mp-565627,BaCaVP2O9,-3.078488805931123
mp-1047958,BaCaWF7,-3.529826053833
mp-979986,BaCaYb2,0.02597262812500012
mp-1228692,BaCaZr8(PO4)12,-3.2700421961887765
mp-527,BaCd,-0.3244680824999999
mp-1182162,BaCd(ClO)4,-1.304143589304001
mp-540736,BaCd(PO3)4,-2.736881095059524
mp-31216,BaCd11,-0.17224547333333318
mp-11266,BaCd2,-0.3391055166666668
mp-1078435,BaCd2Pt,-0.5293044025000002
mp-1183366,BaCd3,-0.2489158837500001
mp-1227962,BaCd3Ga,-0.2893023570000001
mp-1190335,BaCdAs2O7,-2.1215574880681825
mp-1095151,BaCdAsF,-1.9688368602975
mp-30426,BaCdBi2,-0.51551846
mp-1214477,BaCdFeF7,-3.1475759383329995
mp-621924,BaCdGaF7,-3.2311748948330017
mp-11816,BaCdGe,-0.4707546866666664
mp-13831,BaCdGeS4,-1.3908568355357147
mp-1095738,BaCdHg2,0.5984090962499999
mp-7899,BaCdO2,-2.1600269881250003
mp-1183292,BaCdO3,-1.6558891117500003
mp-6695,BaCdP2O7,-2.8131589320941557
mp-1079603,BaCdPF,-1.9241562658332143
mp-1228125,BaCdPb,-0.4462571149999996
mp-8885,BaCdS2,-1.6781711970312507
mp-30040,BaCdSb2,-0.60464024375
mp-1078693,BaCdSbF,-1.9099097902975
mp-1227971,BaCdSn,-0.5291124766666666
mp-985290,BaCe,0.4430580000000002
mp-1196315,BaCe(SnS3)2,-1.5589407161875002
mp-22288,BaCe2CoS5,-2.0414991567013896
mp-16532,BaCe2FeS5,-2.057520440034724
mp-10502,BaCe2MnS5,-2.1116145189236115
mp-778873,BaCe2O4,-3.5031105825
mp-16453,BaCe2ZnS5,-2.1257443622569454
mp-1183525,BaCe3,0.3600002225000001
mp-559451,BaCeC2O6F,-2.8839915055627285
mp-569380,BaCeI4,-1.5305036374999998
mp-1099105,BaCeMg14,0.11674283187500012
mp-4887,BaCeN2,-1.2331939999399992
mp-3187,BaCeO3,-3.604949982750001
mp-568662,BaCl2,-2.9534946255066665
mp-1189047,BaCl2O,-1.8443671994425004
mp-1194474,BaCl2O11,-0.4573961632335717
mp-23432,BaClF,-3.60397968315
mp-1214435,BaClO,-2.341463764003332
mp-1182237,BaClO3,-1.319159559402
mp-1201865,BaCo(SeO3)2,-1.8360457652187503
mp-19143,BaCo2(AsO4)2,-2.000203325384616
mp-1194023,BaCo2(PO4)2,-2.594065356483516
mp-644003,BaCo2P2H2O9,-2.3510224457984807
mp-19203,BaCo2Si2O7,-2.7071816503124992
mp-1228162,BaCo2Sn4O11,-2.0957965871527784
mvc-11646,BaCo4O7,-1.4721101098958336
mp-1191386,BaCoAs2O7,-2.074378116704546
mp-25676,BaCoBP2HO9,-2.6524388570548263
mp-557291,BaCoF4,-3.2868729957933334
mp-505765,BaCoN,-0.5285087287933332
mp-19086,BaCoO2,-2.0885843814583342
mp-18965,BaCoO3,-2.0705822417500004
mp-19278,BaCoP2O7,-2.7792169657305195
mp-19832,BaCoS2,-1.4570586607812508
mp-1078227,BaCoSO,-1.8656947950781253
mp-1196884,BaCoSiO4,-2.8165024195238084
mp-19518,BaCr(Si2O5)2,-3.18340038984375
mp-19500,BaCr10O15,-2.32468192860577
mp-1214892,BaCr2(RuO3)4,-1.8680627056578945
mp-561864,BaCr2O4,-2.597856246071429
mp-1197259,BaCr2O7,-2.128601068625
mp-1194334,BaCr2PO11,-1.8235363173928565
mp-1048371,BaCr4O7,-2.0028808640624987
mp-1041288,BaCr4O8,-2.021958436153847
mp-557882,BaCr4S7,-1.315994087161459
mp-1214499,BaCrCdF7,-3.2595211778329998
mp-562066,BaCrF5,-3.5844892169214284
mp-559246,BaCrF6,-3.2846139646425003
mp-1048114,BaCrF7,-2.9717771045366663
mp-1029770,BaCrN2,-0.9981452118149994
mp-567113,BaCrO3,-2.5451077413214285
mp-19662,BaCrO4,-2.482316723750001
mp-19110,BaCrP2O7,-2.9046258180032463
mp-1078516,BaCrS2,-1.617028705781251
mp-30428,BaCu,-0.06630755374999975
mp-1182559,BaCu(C2O7)2,-0.8774010308750008
mp-9639,BaCu(SeO3)2,-1.7415020079687502
mp-6127,BaCu(Si2O5)2,-3.025036898281249
mp-565843,BaCu(SiO3)2,-2.8752358195000007
mp-642,BaCu13,-0.0139137728571426
mp-1096847,BaCu2(AgO2)2,-1.1281185161111107
mp-17262,BaCu2(AsO4)2,-1.7981979988461545
mp-1147526,BaCu2(HgO2)2,-1.244016634444444
mp-654359,BaCu2(PO4)2,-2.3852522801373626
mp-542101,BaCu2Ge2O7,-1.9810810782291668
mp-17947,BaCu2GeS4,-1.1425231472395847
mp-17252,BaCu2GeSe4,-0.7192771382552081
mp-697156,BaCu2P2H2O9,-2.1943726162672332
mp-22407,BaCu2Si2O7,-2.5264971059375
mp-17954,BaCu2SnS4,-1.137613844322918
mp-554401,BaCu2Te2(ClO3)2,-1.6570330780015392
mp-3988,BaCu3O4,-1.4642968068749995
mp-1048179,BaCu4O7,-1.007400219895833
mp-27424,BaCu4S3,-0.8916550390234379
mp-556714,BaCu6(GeS4)2,-0.8232854736764703
mp-1228010,BaCu6Te6S,-0.3575795767187501
mp-1228039,BaCu6Te6Se,-0.2933439413281249
mp-11145,BaCu9Ge4,-0.14921781607142798
mp-11143,BaCu9Si4,-0.1942581953571429
mp-1192715,BaCu9Sn4,-0.14091695071428592
mp-9898,BaCuAs,-0.7497902816666672
mp-6571,BaCuAs2O7,-1.9814089794318184
mp-551135,BaCuB2O5,-2.5989099355092597
mp-31145,BaCuBi,-0.5335651866666667
mp-556030,BaCuCO3F2,-2.4592099752975
mp-12268,BaCuF4,-3.0111307832933343
mp-1227964,BaCuGe,-0.3498529249999998
mp-1215121,BaCuH12(C2O7)2,-1.5560538547949996
mp-29199,BaCuN,-0.4723458541266667
mp-997034,BaCuO2,-2.000909301875
mp-1076800,BaCuO3,-1.6653403427500002
mp-1147782,BaCuO6,-0.6854785093750007
mp-16254,BaCuP,-0.7282308307142861
mp-8851,BaCuP2O7,-2.6594932775487012
mp-556604,BaCuPClO4,-2.506234484737857
mp-1042220,BaCuReO5,-1.81976439296875
mp-1214483,BaCuRu5O11,-1.5377518382638884
mp-1147715,BaCuS2,-1.4718639907812503
mp-1080650,BaCuSF,-2.309782666313125
mp-1147561,BaCuSO,-1.7310018638281246
mp-11700,BaCuSb,-0.6945530316666672
mp-1042217,BaCuSbO5,-1.68745927015625
mp-9195,BaCuSeF,-2.128278686195938
mp-1096855,BaCuSeO,-1.4005111062109377
mp-5792,BaCuSn2,-0.4408566387499997
mp-557735,BaCuTe2O7,-1.8233836176136364
mp-1042556,BaCuWO5,-1.8678410495312496
mp-19364,BaDy2CoO5,-3.1905187470833334
mp-22550,BaDy2CuO5,-3.0959226301388885
mp-562061,BaDy2MnO5,-3.3099537533011096
mp-9740,BaDy2PdO5,-3.0769376218055555
mp-1195063,BaDy2Si3O10,-3.6221543373437504
mp-6643,BaDy2ZnO5,-3.276492453194445
mp-18804,BaDyCo4O7,-2.1082289818269238
mp-9503,BaDyCuTe3,-1.241812528333334
mp-24971,BaDyFe2O5,-2.679663559583333
mp-1192895,BaDyFe4O7,-2.3689986849038465
mp-1207068,BaDyFeCuO5,-2.548089242916668
mp-1183286,BaDyO3,-3.14041173675
mp-505808,BaEr2CuO5,-3.117275815694444
mp-12803,BaEr2F8,-4.440871290865456
mp-1195744,BaEr2Si3O10,-3.63383152296875
mp-6495,BaEr2ZnO5,-3.2960655529166663
mp-1195598,BaEr4Si5O17,-3.668391124861112
mp-559025,BaErAgS3,-1.9415231603645835
mp-1102849,BaErAgSe3,-1.5324948301302086
mp-1214427,BaErAl3SiN4O3,-2.3735137206361543
mp-14969,BaErCuS3,-2.0423363820312503
mp-1101781,BaErCuSe3,-1.5748873584635419
mp-1104205,BaErFe4O7,-2.340895183365385
mp-1188765,BaErMn2O5,-2.81292199313
mp-1183291,BaErO3,-3.1828214137500006
mp-546182,BaEu2CoO5,-2.718191667361112
mp-579071,BaEu2Mn2O7,-2.7263887046391666
mp-505054,BaEu2NiO5,-2.6009089318055554
mp-1019738,BaEu2O4,-3.0921405110714297
mp-510479,BaEu2ZnO5,-2.7722077945833328
mp-1183388,BaEu3,0.0665613399999998
mp-656144,BaEuFe2O5,-2.5055489034722243
mp-1228144,BaEuFeCuO5,-2.3197149023611114
mp-754392,BaEuO2,-2.956027401875001
mp-1183310,BaEuO3,-2.78453244175
mp-1228016,BaEuS2,-2.365369885781252
mp-1080821,BaF3,-3.2079779471425
mp-19165,BaFe(Si2O5)2,-3.1443230317187503
mp-565581,BaFe12O19,-1.9312320321484384
mp-705834,BaFe15O23,-1.7520234281730784
mp-1190858,BaFe2(P2O7)2,-2.7018315945748297
mp-1103865,BaFe2(PO4)2,-2.6026892764835177
mp-566125,BaFe2(SeO3)4,-1.736159698388158
mp-1214474,BaFe2F7,-3.2105899000830003
mp-566925,BaFe2P2O7F2,-2.8633918978868373
mp-1215009,BaFe2PbO5,-2.0733604865277786
mp-1095213,BaFe2S2O,-1.6398748865625012
mp-22739,BaFe2S3,-1.3106014803645845
mp-504563,BaFe2Se3,-0.803758679713542
mp-1214455,BaFe2Si2O7,-2.842961231354165
mp-1194498,BaFe3(PO4)3,-2.6469651203383453
mp-1214792,BaFe3Si4SO11,-2.660763479890625
mp-1048391,BaFe4O7,-1.8546965465625
mp-1228094,BaFe4Sn2O11,-2.125977976875
mp-1228771,BaFe5Bi4O15,-1.8406144661500001
mp-1227957,BaFeAs2Ru,-0.5883981430000006
mp-1193185,BaFeBP2O9,-2.8008532748001693
mp-1201579,BaFeCoPbO5,-1.8804657915277767
mp-1228033,BaFeCuF7,-2.930975298833
mp-1228046,BaFeCuPb2ClO5,-1.8123412672281816
mp-554451,BaFeF4,-3.4571051107933326
mp-561191,BaFeF5,-3.434304542278571
mp-1227945,BaFeO2F,-2.694466537738
mp-19035,BaFeO3,-2.253865310750001
mp-1196275,BaFeOF5,-2.703561201525001
mp-1214449,BaFeP(O2F)2,-3.0382911449469843
mp-1195793,BaFePHO5,-2.57078604022365
mp-1096808,BaFeS,-0.9344464646875004
mp-850536,BaGa12O19,-2.346900912148437
mp-1219,BaGa2,-0.4549937733333334
mp-540585,BaGa2(GeO4)2,-2.469897845576923
mp-6759,BaGa2(SiO4)2,-2.9938728132692303
mp-560870,BaGa2B2O7,-2.7762412610069447
mp-1227967,BaGa3Sn,-0.39442494099999975
mp-335,BaGa4,-0.4349340680000001
mp-769971,BaGa4O7,-2.497234086145834
mp-1194652,BaGaB4H3O10,-2.5592935931592966
mp-10509,BaGaBO3F2,-3.1785841172245832
mp-1008511,BaGaCu2,-0.22107046250000012
mp-541629,BaGaF5,-3.5394430094214284
mp-1102026,BaGaGe,-0.5387056716666668
mp-1018095,BaGaGeH,-0.526210940905
mp-1182080,BaGaH4,-0.2180297899133332
mp-1103816,BaGaH5,-0.3438364490142857
mp-1227940,BaGaSi,-0.4472018833333339
mp-1008506,BaGaSiH,-0.4458141546550003
mp-1228005,BaGaSn,-0.5018149833333331
mp-1018094,BaGaSnH,-0.534176413405
mp-1214665,BaGd(CoO3)2,-2.1485056832500007
mp-505313,BaGd2CoO5,-3.0409995373611114
mp-580562,BaGd2Mn2O7,-2.7722119033891666
mp-19332,BaGd2NiO5,-3.012945939583333
mp-17143,BaGd2O4,-3.614597241428573
mp-505438,BaGd2PdO5,-3.0232724106944437
mp-19750,BaGd2PtO5,-3.0223212906944443
mp-1197749,BaGd2Si3O10,-3.5815015698437493
mp-15904,BaGd2ZnO5,-3.20921527125
mp-19942,BaGdAuSe3,-1.5154888659635422
mp-29538,BaGdCl5,-2.796334981614286
mp-1079551,BaGdCo2O5,-2.384714562916668
mp-1214529,BaGdCuBO5,-2.8585744297685176
mp-1102297,BaGdCuS3,-2.033738944531251
mp-20157,BaGdCuSe3,-1.587625906796875
mp-1095273,BaGdCuTe3,-1.2470646850000005
mp-1078934,BaGdFe2O5,-2.6522088156944448
mp-1193020,BaGdFe4O7,-2.3347569933653856
mp-1206575,BaGdFeCuO5,-1.7985907795833331
mp-1730,BaGe,-0.5911214624999999
mp-1095485,BaGe(PO4)2,-2.817240724107142
mp-1019548,BaGe(S2O7)3,-2.0818957828663787
mp-1198185,BaGe2Au5,-0.3579658456249999
mp-631556,BaGe2B,0.7388401258333337
mp-558184,BaGe2O5,-2.4752003175781248
mp-28710,BaGe2S5,-1.2490659922265634
mp-1078234,BaGe3,-0.3581775825000002
mp-1069708,BaGe3Ir,-0.4532395709999996
mp-1182246,BaGe3O8,-2.040966768333333
mp-1068447,BaGe3Pd,-0.509902537
mp-1070247,BaGe3Rh,-0.4974671810000004
mp-1194551,BaGe4(RhS3)2,-1.0565861561057692
mp-3848,BaGe4O9,-2.3704139605654766
mp-1095284,BaGe5,-0.18662301500000086
mp-1103747,BaGe6,-0.16693788642857146
mp-1029679,BaGe7N10,-0.36830985215555495
mp-1227958,BaGeAu3,-0.5112148650000001
mp-14006,BaGeF6,-3.4230602402675014
mp-1029743,BaGeN2,-0.6098590754087496
mp-13863,BaGeO3,-2.7106835752500005
mp-1190729,BaGeO4,-1.9880620666666653
mp-1192417,BaGePbO4,-2.363822993571429
mp-22151,BaGePt,-0.9001637941666658
mp-1195469,BaGeS3,-1.5314743189375009
mp-1214576,BaH(NO2)2,-1.0862567375058336
mp-556567,BaH16C4S4(NO5)2,-1.0729650542278382
mp-23715,BaH2,-0.5871253624133335
mp-690851,BaH2(CO2)2,-1.827085395804444
mp-1214914,BaH2(CO2)4,-1.4259144828160004
mp-1228613,BaH2(CO3)2,-0.8944857529309099
mp-1214729,BaH2(S2O3)2,-1.4328804471915388
mp-703568,BaH2(SO4)2,-2.215497408105
mp-644226,BaH2C2O5,-1.976763136099
mp-554761,BaH2C4S4N2(O3F4)3,-1.7794353101111766
mp-643643,BaH2CSNClO,-1.4008302386803129
mp-642661,BaH2Cl2O,-2.1413080637516675
mp-24421,BaH2Cl2O7,-1.3805728802091661
mp-24510,BaH2I2O7,-1.5034825546658332
mp-541221,BaH2N2O5,-1.5269047629916657
mp-642649,BaH2O3,-1.530630427665
mp-1214636,BaH2S5O6,-1.369520782146608
mp-1214799,BaH2Se(S2O3)2,-1.3112047912202691
mp-23755,BaH3C3O7,-1.8390229925614288
mp-696806,BaH4(BrO)2,-1.6597703946644446
mp-698325,BaH4(CO2)3,-1.6209690257664289
mp-555646,BaH4(CO3)2,-1.838986997652308
mp-690703,BaH4(ClO)2,-1.8883338742777769
mp-24090,BaH4(IO)2,-1.5250850707755557
mp-23904,BaH4O3,-1.8615637835287493
mp-642844,BaH5BrO3,-1.7235325171849998
mp-642834,BaH5ClO3,-1.8249656245110004
mp-1202302,BaH6(C2O5)2,-1.678376507581904
mp-1214846,BaH6C2N4O5,-1.236374125555
mp-707729,BaH6C2S2N2O3,-1.0968975450534382
mp-1202239,BaH6C2SNO5,-1.4271829648070309
mp-723120,BaH6C4O7,-1.4359104053038887
mp-23944,BaH6Cl2O11,-1.2897495070995006
mp-557810,BaH6F8,-2.4049741915826663
mp-695996,BaH8C6(N3O4)2,-1.2102145919220684
mp-28587,BaH8O5,-1.6648872551935707
mp-720842,BaH8PtC4(NO)4,-0.8937209335672727
mp-766855,BaH9IO5,-1.5530286030518743
mp-24424,BaHBr,-1.4772124195399998
mp-643036,BaHBrO,-2.2132377843425
mp-23861,BaHCl,-1.818298042293333
mp-24565,BaHClO,-2.4448920245325
mp-23862,BaHI,-1.2649727612066666
mp-643384,BaHIO,-2.0788111024675
mp-1214550,BaHS2O3,-1.7026064743564295
mp-545548,BaHf(PO4)2,-3.3684026966071428
mp-1194160,BaHf(SiO3)3,-3.5368579725892846
mp-631569,BaHf2As,0.5582585812500005
mp-1214420,BaHfF6,-4.2330948727675
mp-631500,BaHfMg2,0.57417112125
mp-1038615,BaHfMg30O32,-2.924769762265625
mp-1016652,BaHfMg6,0.160776780625
mp-631521,BaHfMo,1.194908978333333
mp-10322,BaHfN2,-1.532714048689999
mp-998552,BaHfO3,-3.80262713175
mp-1105549,BaHfS3,-2.2371668499375006
mp-2197,BaHg,-0.5291021649999998
mp-1600,BaHg11,-0.16025363500000006
mp-11267,BaHg2,-0.5007657483333334
mp-555736,BaHg2(ClO)2,-1.6601447452171427
mp-1183299,BaHg2Bi,-0.4757558112499998
mp-864618,BaHg2Pb,-0.4270004325000001
mp-1093549,BaHg2Sb,0.70206314375
mp-867770,BaHg3,-0.4295864287500001
mp-1193593,BaHg6,-0.2857322525
mp-1190454,BaHgAs2O7,-1.9431991539772728
mp-3915,BaHgO2,-1.9714064181250004
mp-1228081,BaHgPb,-0.4958086633333331
mp-560702,BaHgRuO5,-1.7571992716145826
mp-1079686,BaHo(CoO3)2,-2.2226727872500005
mp-541217,BaHo2CoO5,-3.2017937931944456
mp-17878,BaHo2CuO5,-3.107608489583334
mp-17363,BaHo2O4,-3.7151911989285713
mp-9785,BaHo2PdO5,-3.08316566125
mp-6501,BaHo2ZnO5,-3.287213547916666
mp-1195686,BaHo4Si5O17,-3.662136129861111
mp-19620,BaHoCo4O7,-2.113774472980768
mp-1194202,BaHoFe4O7,-2.374277131826924
mp-23260,BaI2,-1.7994037474999998
mp-1182139,BaI2O,-1.5799793528125003
mp-1214491,BaIBr,-2.0444733216666666
mp-22951,BaIF,-3.030418887063334
mp-1182264,BaIO5,-0.8876937773214283
mp-31509,BaIn,-0.41372710916666655
mp-1147688,BaIn(Cu3O4)2,-1.1567398695833324
mp-22141,BaIn2,-0.4741923422222222
mp-1205018,BaIn2(P2O7)2,-2.730052085368481
mp-578629,BaIn2O4,-2.2720449186309533
mp-1025520,BaIn2Pd,-0.5661517754166671
mp-21032,BaIn2Pt,-0.6289324679166666
mp-11078,BaIn2Rh,-0.4596549529166669
mp-1227995,BaIn3Pt,-0.5292539380000001
mp-22687,BaIn4,-0.34373116866666714
mp-639150,BaIn4Ir,-0.33967158888888943
mp-1095357,BaIn9Ir2,-0.22921284499999986
mp-25737,BaInCo4O7,-1.7112809182371789
mp-1182175,BaInCu3Se4,-0.4028866475231475
mp-1228148,BaInCuF7,-2.9637353061663334
mp-1214395,BaInF5,-3.45436127382619
mp-1214344,BaInFe4O7,-1.8388775986217945
mp-1228055,BaInGa,-0.4519517727777777
mp-1227944,BaInGe,-0.4601490861111112
mp-1095951,BaInHg2,0.7475315391666666
mp-1183288,BaInO3,-2.1789026954166664
mp-13545,BaIrF6,-2.7843527283925003
mp-542897,BaIrO3,-2.01037823875
mp-555699,BaLa(BiS3)2,-1.5842635471875
mp-1227951,BaLa(CoO3)2,-2.1928780467500006
mp-1227910,BaLa(FeO3)2,-2.5701199427499994
mp-1201929,BaLa(SbSe3)2,-1.0978070614062505
mp-1227960,BaLa2(CoO3)3,-2.386308672083333
mp-18414,BaLa2BeO5,-3.49920574375
mp-771981,BaLa2Br8,-2.039867265909091
mp-771973,BaLa2Cl8,-2.841814989643636
mp-22423,BaLa2CoS5,-2.1033838722569453
mp-1228011,BaLa2Fe2O5F4,-3.2667680979292864
mp-1227917,BaLa2Fe2O7,-2.947006208229167
mp-16531,BaLa2FeS5,-2.1390477361458347
mp-21699,BaLa2In2O7,-2.9478308031597216
mp-690460,BaLa2Mn3O9,-2.8309935642753334
mp-6770,BaLa2MnS5,-2.215778542256944
mp-755558,BaLa2O4,-3.593544255
mp-8809,BaLa2PtO5,-3.041785840138888
mp-1197417,BaLa2Sc2O7,-3.8108390455208334
mp-559703,BaLa2Te5O14,-2.3342724930681817
mp-1200651,BaLa2Ti3O10,-3.697787804843751
mp-1227920,BaLa2TiCr2O9,-3.253713744527778
mp-1203123,BaLa2WO7,-3.2972991548863644
mp-6793,BaLa2ZnO5,-3.200274000694445
mp-16452,BaLa2ZnS5,-2.239743683923612
mp-1183311,BaLa3,0.16345417249999986
mp-1227929,BaLa3(CoO3)4,-2.429661787750001
mp-1227939,BaLa3(NiO4)2,-2.763129670714286
mp-1228230,BaLa3Mn4O10,-2.880454539241111
mp-1228047,BaLa3Mn4O12,-2.8776587829419995
mp-699403,BaLa3TiCr3O12,-3.2425181185833343
mp-1228419,BaLa4(CoO3)5,-2.49269518675
mp-558557,BaLa4Cu5O12,-2.4525910329545466
mp-1228080,BaLa4Mn5O15,-2.883505044942
mp-1228245,BaLa4Ti4O15,-3.730907750642362
mp-744123,BaLa4TiCr4O15,-3.2302449138166662
mp-694922,BaLa5TiCr5O18,-3.2208571633055545
mp-695250,BaLa7Mg5Nb3O24,-3.483729733
mp-1228420,BaLa8Co(Si3O13)2,-3.5850592293452386
mp-1101818,BaLaAgSe3,-1.6089586934635427
mp-1214348,BaLaAgTe3,-1.3338697183333337
mp-16934,BaLaAlO4,-3.5297874782142853
mp-1227841,BaLaB12,-0.4886345307142861
mp-754494,BaLaBr5,-2.0674076742857137
mp-772035,BaLaCl5,-2.8319837514357142
mp-1206732,BaLaCo2O5,-2.400050489583333
mp-1228112,BaLaCoIrO6,-2.308453282749999
mp-1227876,BaLaCoSbO6,-2.54788357725
mp-1229299,BaLaCrMoO6,-2.76285499675
mp-14970,BaLaCuBO5,-2.8745172969907395
mp-41057,BaLaCuRuO6,-2.3007809852500003
mp-18079,BaLaCuS3,-2.047894175364583
mp-541430,BaLaCuSe3,-1.6202761126302083
mp-17063,BaLaCuTe3,-1.3046475704166671
mp-705604,BaLaFe2Cu2O11,-1.5054433213970593
mp-1227839,BaLaFeO4,-2.909248400714286
mp-541280,BaLaGaO4,-3.127776796071428
mp-30111,BaLaI4,-1.6197327241666668
mp-755350,BaLaI5,-1.628845062142857
mp-1021159,BaLaMg6,-0.009994595000000215
mp-41414,BaLaMgBiO6,-2.6374630362500007
mp-39288,BaLaMgNbO6,-3.32918342075
mp-39249,BaLaMgRuO6,-2.7709443162500014
mp-40251,BaLaMgTaO6,-3.4531288937500006
mp-1227844,BaLaMn2O6,-2.6973353209420003
mp-697820,BaLaMnInO6,-2.644756481429333
mp-40356,BaLaMnMoO6,-2.691735278846
mp-690567,BaLaMnRuO6,-2.537576095846
mp-1227869,BaLaMnSbO6,-2.7789155233459994
mp-1227906,BaLaMnSnO6,-2.7587219163460004
mp-1227851,BaLaNbCrO6,-3.0726700767500006
mp-1227936,BaLaNdMn3O9,-2.811631439442
mp-622618,BaLaNiRuO6,-2.32500514025
mp-1227919,BaLaPrMn3O9,-2.810070273941999
mp-1078225,BaLaSi2,-0.5911295087499999
mp-1227930,BaLaSmMn3O9,-2.811759207775332
mp-41283,BaLaTaMnO6,-3.2037990078460004
mp-42054,BaLaTaZnO6,-3.14362582625
mp-39208,BaLaTiCrO6,-3.2995646074166665
mp-695277,BaLaTiCuO6,-2.9369772061666666
mp-1227842,BaLaTiFeO6,-3.173587502416668
mp-39259,BaLaZnRuO6,-2.4805208967500003
mp-17672,BaLi(B3O5)3,-2.9590538149519223
mp-557892,BaLi(BS2)3,-1.2889994494886372
mp-569396,BaLi2(MgGe)2,-0.4285267985714287
mp-570771,BaLi2(MgSi)2,-0.3069501457142856
mp-1097520,BaLi2Ca,1.282614943125
mp-1019547,BaLi2Mg(PO4)2,-3.0315771345918363
mp-1103771,BaLi2MnV2O8,-2.6196535672114294
mp-769677,BaLi2NiO3,-1.8806668998214289
mp-6175,BaLi2P2O7,-2.976640958794642
mp-1095724,BaLi2Pb,1.156946965
mp-27454,BaLi2Si,-0.27599339999999994
mp-558310,BaLi2SiO4,-3.0078002637500005
mp-1096018,BaLi2Sn,1.15565594375
mp-558083,BaLi2Ti6O14,-3.4087850729347826
mp-1096003,BaLi2Tl,1.1189489837500002
mp-776790,BaLi4NiO4,-1.944039195250001
mp-1178558,BaLi4O3,-2.1755864664062505
mp-543044,BaLiAlF6,-3.8792282396822215
mp-10616,BaLiAs,-0.9422293350000004
mp-6499,BaLiBO3,-2.971191610486111
mp-554076,BaLiBS3,-1.6166618693923611
mp-763851,BaLiCaVP2O9,-3.006032622702381
mp-554566,BaLiCoF6,-3.1472914374600003
mp-565544,BaLiCrF6,-3.5021922613488874
mp-10250,BaLiF3,-3.759216087714
mp-1214380,BaLiGd2(MoO4)4,-2.669207162083333
mp-13140,BaLiGe2,-0.5315313024999999
mp-23818,BaLiH3,-0.594464455172
mp-40189,BaLiLaTeO6,-2.680413378749999
mp-1227900,BaLiMg2AlSi3(O5F)2,-3.3729782032439983
mp-1099308,BaLiMg6,0.11058801500000004
mp-1183284,BaLiO3,-1.6692257167499995
mp-13277,BaLiP,-0.9096843657142858
mp-41219,BaLiPrTeO6,-2.62678699075
mp-1214370,BaLiRu5O11,-1.6905076568750006
mp-10485,BaLiSb,-0.9440868933333328
mp-9950,BaLiSi,-0.1776947533333336
mp-555845,BaLiZr2F11,-3.9993991358726655
mp-505268,BaLu2CuO5,-3.141742213194444
mp-1214962,BaLu2F8,-4.447780356320001
mp-1201039,BaLu2NiO5,-3.1355126679166654
mp-752442,BaLu2O4,-3.770195542499999
mp-1200479,BaLuCo4O7,-2.1501670835576925
mp-1103986,BaLuFe4O7,-2.3497155475961544
mp-611393,BaLuFeCuO5,-2.5589465495833332
mp-1183308,BaMg,-0.050488524999999784