task_id,composition,formation_energy_per_atom
mp-636287,Eu3(GaNi)4,-0.4694594277272728
mp-1189104,Eu3(GaP2)2,-0.8857129920634921
mp-1200526,Eu3(GeAs2)2,-0.8089043369444441
mp-1095238,Eu3(GeIr)4,-0.670716543181819
mp-1188263,Eu3(InP2)2,-0.8361152766931212
mp-1201532,Eu3(MgGe)5,-0.5039746819230774
mp-1199980,Eu3(MgSi)5,-0.4012737165384616
mp-1226420,Eu3(PPt)4,-0.9061403585064948
mp-1080739,Eu3(SF2)2,-3.3862664686538886
mp-1199837,Eu3(SiAs2)2,-0.8358580027777778
mp-1191000,Eu3(SiNi3)2,-0.3966153186363654
mp-1193516,Eu3(SnPd)2,-0.7895545796428577
mp-1184295,Eu3Ag,-0.014459901249999518
mp-621667,Eu3Ag2,-0.25909262100000063
mp-1212916,Eu3Al2O7,-3.3962905678125
mp-21757,Eu3Al5O12,-3.36140039675
mp-1019729,Eu3AlO5,-3.3344124918055567
mp-1104668,Eu3As4,-1.0038829500000008
mp-1189094,Eu3Au,-0.4468393993750013
mp-1104457,Eu3Au2,-0.6888289496666659
mp-21389,Eu3AuO6,-2.548715783250001
mp-1213384,Eu3B2(O2F)3,-3.3242675860288102
mp-1102298,Eu3B2Pt7,-0.8356318706944444
mp-566088,Eu3BWO9,-2.929100484851188
mp-579259,Eu3BeO5,-3.2257688790277785
mp-1184377,Eu3Bi,-0.4664539550000004
mp-540915,Eu3BrO4,-2.888070893750002
mp-1184391,Eu3Cr,0.44815494500000064
mp-1184402,Eu3Dy,0.10612069124999833
mp-1225434,Eu3DySb3,-1.075847767857143
mp-1184396,Eu3Er,0.10896151749999916
mp-566538,Eu3Fe5O12,-2.3667328440000004
mp-1189159,Eu3FeO6,-2.8478488357500016
mp-672286,Eu3Ga2,-0.380575125
mp-1184542,Eu3Ga5,-0.5220667568749997
mp-1213411,Eu3Ga5O12,-2.6460902497500003
mp-1102706,Eu3Ga8,-0.4584129449999999
mp-1184814,Eu3GaO6,-2.9636004192500014
mp-1194348,Eu3GaP3,-1.0198783773469384
mp-1204216,Eu3Ge13Os4,-0.24801976199999984
mp-1189484,Eu3Ge5,-0.6019261981249997
mp-1184386,Eu3H,0.4514711228449997
mp-1184326,Eu3Hf,0.40418138999999975
mp-1184407,Eu3Ho,0.10689959375000058
mp-1184515,Eu3In,-0.2242747870833348
mp-1069296,Eu3InO,-1.4948302439166654
mp-1193614,Eu3InP3,-0.9726445488945582
mp-17981,Eu3IrO7,-2.6178114426136365
mp-1184432,Eu3Lu,0.11155791374999956
mp-1184342,Eu3Mg,8.634625000070173e-05
mp-1213342,Eu3MoO7,-2.96159726625
mp-1184441,Eu3Nb,0.5921890475000016
mp-510674,Eu3NbO7,-3.212636293068181
mp-1182716,Eu3O4,-3.2298991525000025
mp-561983,Eu3OsO7,-2.7440518753409084
mp-865685,Eu3P,-0.40820155303571504
mp-1105092,Eu3P4,-1.0335902012244904
mp-1225764,Eu3Pd,-0.2892402587499987
mp-1105286,Eu3Pd2,-0.6133569790000005
mp-1104698,Eu3Pt2,-0.8660832629999997
mp-1006150,Eu3Re,0.6823472543749993
mp-581427,Eu3ReO7,-2.9695702323863618
mp-755985,Eu3ReO8,-2.7984357310416663
mp-1189512,Eu3Rh,-0.31379791937500023
mp-1199220,Eu3Rh4Pb13,-0.28624774124999985
mp-22365,Eu3RuO7,-2.6668745835227283
mp-1184541,Eu3S,-0.8197536885156254
mp-1184203,Eu3Sb,-0.5549431912500005
mp-505043,Eu3Sb5O12,-2.3622968439999994
mp-1190831,Eu3SbO7,-2.8807591507954555
mp-1213528,Eu3Sc2(FeO4)3,-2.9085053952500006
mp-1213328,Eu3Sc2Al3O12,-3.508231491125
mp-1196416,Eu3Si2BO10,-3.222476229869791
mp-1225258,Eu3Si4,-0.5563941650000004
mp-1213517,Eu3Si6N4O9,-2.716860240262273
mp-1213142,Eu3Sn13Ir4,-0.4689036720000005
mp-1199325,Eu3Sn13Rh4,-0.5406163810000002
mp-504621,Eu3Sn2S7,-1.6397428127864586
mp-1212891,Eu3Sn5,-0.6117201362499998
mp-1184433,Eu3Ta,0.7224302762499999
mp-1213410,Eu3Ta5O15,-3.4138728612499984
mp-21406,Eu3TaO6,-3.2454848032499997
mp-1213095,Eu3TaO7,-3.3232871589772732
mp-1184385,Eu3Te,-0.5803678687500007
mp-1184405,Eu3Th,0.24838281124999995
mp-1184338,Eu3Ti,0.4016416620833336
mp-1212973,Eu3Ti2O7,-3.511854309756945
mp-867318,Eu3Tl,-0.18547017124999954
mp-1184443,Eu3Tm,0.1103514575000002
mp-1184456,Eu3U,0.7063289412499998
mp-1184340,Eu3V,0.5008088112499998
mp-1212877,Eu3V2O7,-3.007186067812498
mp-1184504,Eu3W,0.9097777137500014
mp-1213105,Eu3W(ClO2)3,-2.680984665175385
mp-770564,Eu3WO6,-2.82622214725
mp-1184475,Eu3Y,0.1016477512500007
mp-1226148,Eu3YMn4O12,-2.7498140036920007
mp-1103457,Eu3Zn2(CuP2)2,-0.8047455257792212
mp-1184395,Eu3Zr,0.3410609312499986
mp-1213330,Eu4Al,0.3582453569999998
mp-582606,Eu4Al2O9,-3.2781479717499984
mp-1077953,Eu4As2O,-1.7212254530357165
mp-20995,Eu4As3,-1.2272185142857148
mp-21787,Eu4Au2O9,-2.3241953609166672
mp-1199066,Eu4B4O11F2,-3.1801302017998414
mp-1225374,Eu4BPd12,-0.5579461539215688
mp-1078184,Eu4Bi2O,-1.550162941607144
mp-1104641,Eu4Bi3,-0.8902626828571424
mp-559031,Eu4Br6O,-2.2815270769318188
mp-1204426,Eu4C2N4F5,-2.5144453944480007
mp-28546,Eu4Cl6O,-2.87093166780091
mp-1191507,Eu4I6O,-1.9084177946590908
mp-623108,Eu4Ir,-0.26444932800000204
mp-1201125,Eu4Lu(SnS4)3,-1.7208541096875003
mp-700156,Eu4Mo4O11,-2.1532143957236816
mp-753354,Eu4O3F7,-3.490425036934285
mp-1213439,Eu4PdO7,-2.7636927219791665
mp-1078192,Eu4Sb2O,-1.6739857744642868
mp-1212797,Eu4Ti3O10,-3.5266133366176464
mp-1227723,Eu4Zn51,-0.1539728375454543
mp-1105347,Eu5(MoO6)2,-2.883836084736843
mp-1189832,Eu5(ZrS4)3,-2.2007305366875003
mp-1106024,Eu5As3,-1.0967498931249988
mp-1202692,Eu5B3ClO9,-3.164283134695
mp-1196201,Eu5B3O9F,-3.261753329024444
mp-1188517,Eu5Bi3,-0.8445342699999987
mp-1193503,Eu5Cd2Sb5O,-1.1111298424038465
mp-1189588,Eu5CdCu2,-0.15615865437499998
mp-1213313,Eu5Ga3,-0.3068974287499993
mp-1193741,Eu5Ga9,-0.5264953171428571
mp-1188934,Eu5Ge3,-0.6152535849999996
mp-1184420,Eu5Mg,0.040947279166669404
mp-1185383,Eu5Nb4O15,-3.265379039739583
mp-647532,Eu5P3ClO12,-3.2626754414137404
mp-1212781,Eu5P3O12F,-3.3575605729818365
mp-1212818,Eu5P3O13,-3.3342970548894564
mp-1104610,Eu5Pd2,-0.4651239942857148
mp-1104413,Eu5Pt2,-0.6850936799999994
mp-1196458,Eu5Pt4,-0.9003025538888872
mp-1105949,Eu5Sb3,-0.9984582031249988
mp-669318,Eu5Si(Cl3O2)2,-3.0478204499724986
mp-1190061,Eu5Si3,-0.4870861987499993
mp-1182046,Eu5Si3H,-0.5195060054022222
mp-558207,Eu5Si3O12F,-3.5059960033899986
mp-1213303,Eu5Si3O13,-3.3741421183928577
mp-1188090,Eu5Sn3H,-0.6648396292911103
mp-1192440,Eu5Ta4O15,-3.439036864322915
mp-1202464,Eu5V3S6O7,-2.4052568141964286
mp-697962,Eu6Mg7H26,-0.454483410105641
mp-578696,Eu6Mo10O39,-2.4182511518863645
mp-1212839,Eu6Ni20P13,-0.7727166796886451
mp-1229174,Eu6P19Rh30,-0.8851190465584409
mp-1198785,Eu6Sb6S17,-1.4178312603987069
mp-761429,Eu6WO12,-3.0569648234210534
mp-1190780,Eu7(ClF6)2,-3.905589903609524
mp-1106137,Eu7Au3,-0.5298143910000007
mp-1196262,Eu7Cu44As23,-0.2604343868918921
mp-684011,Eu8C4I9N7,-1.2527955000592854
mp-1192827,Eu8In3,-0.26791861727272703
mp-1229284,Eu8Mn3Nb5O28,-3.06478566927
mp-1213676,Eu8Ni18P11,-0.7900923876640921
mp-1213589,Eu9(Ni13P6)2,-0.6636739915045587
mp-665747,EuAg,-0.30521829749999885
mp-1213000,EuAg(WO4)2,-2.191889330416666
mp-1436,EuAg2,-0.3058985449999992
mp-1184463,EuAg2Pb,-0.2529241712500001
mp-865192,EuAg2Sn,-0.3439771374999996
mp-1184392,EuAg3,-0.17870926375000007
mp-542568,EuAg5,-0.17554026583333382
mp-21330,EuAgAs,-0.7726754249999992
mp-865013,EuAgAu2,-0.4787876312499994
mp-23378,EuAgBi,-0.5376493533333324
mp-1225254,EuAgGe,-0.4556971466666664
mp-1184389,EuAgHg2,-0.3199408887499993
mp-756690,EuAgO2,-2.132391369374999
mp-1077622,EuAgO3,-1.51169831375
mp-20482,EuAgP,-0.7551183690476186
mp-1225251,EuAgSn,-0.4775437899999986
mp-1189619,EuAl,-0.28220522649999963
mp-1212749,EuAl12O19,-3.443194090117188
mp-20111,EuAl2,-0.3909827183333334
mp-1190090,EuAl2Ge,-0.4342707812499995
mp-1212809,EuAl3(BO3)4,-3.1546041510000014
mp-1196233,EuAl3(PbO4)2,-2.8602039767857144
mp-1225214,EuAl3Ag2,-0.31324729583333405
mp-1025136,EuAl3Cu2,-0.3612361025000001
mp-1225249,EuAl3Si,-0.2946635030000003
mp-582799,EuAl4,-0.27774207700000064
mp-1225219,EuAl8SiAu4,-0.488455991071428
mp-21407,EuAl9Co2,-0.40869368541666695
mp-1225185,EuAlAg4,-0.2091886874999993
mp-1103193,EuAlAu,-0.6623963050000002
mp-1202507,EuAlF5,-3.9932854407607135
mp-1225194,EuAlGa,-0.45574467833333293
mp-1206175,EuAlGe,-0.5275127283333324
mp-1212768,EuAlGe2O7,-2.684086044659091
mp-1225173,EuAlSi,-0.4899834250000008
mp-1101926,EuAs,-1.146885162500001
mp-1078796,EuAs3,-0.62930349125
mp-19729,EuAsAu,-0.913314305
mp-983564,EuAsO3,-2.2761148327500003
mp-13576,EuAsO4,-2.468218808333333
mp-1025079,EuAsPd,-1.0216225000000003
mp-20732,EuAsPt,-1.0863111033333333
mp-1102917,EuAsS,-1.5012505988541658
mp-1078589,EuAu,-0.8029606312499995
mp-1071698,EuAu2,-0.7588998866666673
mp-1184419,EuAu3,-0.5482401362500005
mp-510098,EuAu5,-0.40991170249999936
mp-1184383,EuAuO3,-1.4847761357500004
mp-1096955,EuB12,-0.1493002042307694
mp-21127,EuB2Rh3,-0.5913980447222222
mp-8109,EuB4O7,-2.9973473029513884
mp-20874,EuB6,-0.4717040421428566
mp-1019734,EuBN2,-1.2328117661899989
mp-22030,EuBO3,-3.094684046583333
mp-20040,EuBPd3,-0.4969825443333334
mp-1103637,EuBPt4,-0.6877822152777782
mp-510377,EuBRh3,-0.4632076543333341
mp-1194109,EuBe13,-0.09037353321428553
mp-1184325,EuBeO3,-2.5758606687500007
mp-1077479,EuBi2,-0.6082581749999996
mp-669431,EuBi2BrO4,-2.08572784
mp-550566,EuBi2ClO4,-2.1974389604075
mp-669573,EuBi2IO4,-1.4236006799999998
mp-1018695,EuBiAu,-0.709818935
mp-1184261,EuBiAu2,-0.5583935049999997
mp-1184306,EuBiPd2,-0.5771211799999998
mp-23311,EuBr2,-2.040808202
mp-1212780,EuBr2O,-1.5735139115625003
mp-1205810,EuBr3,-1.5627175524999997
mp-504727,EuBrO,-2.5503583854166667
mp-1025545,EuBrO2,-1.6545281668749992
mp-581000,EuC10,0.21268118795454471
mp-1018177,EuC2,-0.03080718083333285
mp-22175,EuC2(SN)2,-0.7211188529121425
mp-1103990,EuC6,-0.06036639107142808
mp-554518,EuCO3,-2.6355408645
mp-1192396,EuCO4,-2.1957225427083333
mp-580236,EuCd,-0.3666649499999997
mp-541157,EuCd(BO2)5,-2.788445390784313
mp-30487,EuCd2,-0.33189949666666624
mp-1184455,EuCd2In,-0.30303628708333274
mp-864634,EuCd3,-0.2719044125000001
mp-1225230,EuCdAg,-0.3284241199999987
mp-1184330,EuCdAg2,-0.2292529649999997
mp-11084,EuCdAu,-0.6246367249999997
mp-866297,EuCdAu2,-0.5690987249999999
mp-1225324,EuCdAu5,-0.42059683142857096
mp-1102923,EuCdGe,-0.5090013233333329
mp-864796,EuCdHg2,-0.3929060999999998
mp-1018696,EuCdPb,-0.4337843116666663
mp-11090,EuCdPd,-0.6148479958333333
mp-1095346,EuCdPt,-0.7447602208333327
mp-1018697,EuCdSn,-0.5523772249999995
mp-1183892,EuCl2,-2.7541426671733333
mp-569895,EuCl3,-2.2897294611950003
mp-556382,EuClF,-3.474619268150001
mp-1025494,EuClO2,-1.8390890151900003
mp-1225172,EuCo2SiGe,-0.5657599219999995
mp-1192337,EuCo9Si2,-0.2315985595833325
mp-10690,EuCoGe3,-0.4858374399999989
mp-1212757,EuCoO3,-2.24462793325
mp-1183881,EuCr3,1.2544915362500006
mp-1204938,EuCrHO5,-2.139469141077499
mp-1189762,EuCrO3,-2.7967549757499994
mp-631040,EuCrO4,-2.5227851033333337
mp-1087547,EuCu,-0.13755343124999886
mp-582495,EuCu(MoO4)2,-2.2026666004166664
mp-1213368,EuCu(WO4)2,-2.2454227237499977
mp-1071732,EuCu2,-0.14880634666666614
mp-1079564,EuCu4P3,-0.4352642376785712
mp-2066,EuCu5,-0.10928136416666707
mp-22277,EuCuAs,-0.8356485599999992
mp-635456,EuCuBi,-0.5025564616666655
mp-1198564,EuCuGe,-0.4708012219444445
mp-13696,EuCuO2,-2.2930108168750003
mp-1075902,EuCuO3,-2.0148939237500003
mp-21373,EuCuP,-0.8803458090476184
mp-21354,EuCuSF,-2.2979305238131253
mp-22292,EuCuSb,-0.7025643249999997
mp-21356,EuCuSeF,-2.0952763161959385
mp-510596,EuCuSeO,-1.789426774960937
mp-1225144,EuCuSi3,-0.25774271500000057
mp-1225252,EuCuSn,-0.3950765216666656
mp-13045,EuCuSn2,-0.4280955524999994
mp-13339,EuCuTeF,-1.9642695065475
mp-1212735,EuDy2O4,-3.7389283928571433
mp-542765,EuDyCuS3,-2.007558843697917
mp-1225188,EuDyTi2O7,-3.59883647246212
mp-1183921,EuEr,0.11398309000000052
mp-1212745,EuEr2O4,-3.7804470232142853
mp-1183905,EuErO3,-3.1569608507500018
mp-1184376,EuErTl2,-0.3431416275000005
mp-504731,EuF2,-4.093125865793335
mp-1190091,EuFe4(CuO4)3,-1.6676240249999998
mp-1213269,EuFeGe2O7,-2.3268063903409084
mp-540832,EuFeO3,-2.5369225482499997
mp-1079244,EuGa,-0.45026467000000014
mp-22317,EuGa2,-0.54851077
mp-1212739,EuGa3(BO3)4,-2.6889634163333342
mp-1225128,EuGa3Ag,-0.39959031100000003
mp-22545,EuGa3Co2,-0.3944688550000007
mp-1225152,EuGa3Cu,-0.407297543
mp-1102481,EuGa3Ni2,-0.5028662575000004
mp-1078429,EuGa3Pd,-0.6525356480000006
mp-21884,EuGa4,-0.4331019589999997
mp-1212681,EuGa4Au3,-0.4549278206249996
mp-1225220,EuGaAg,-0.4061763650000003
mp-1225134,EuGaAg4,-0.2304788241666671
mp-1225205,EuGaAu,-0.6746277900000001
mp-1184283,EuGaAu2,-0.51256562875
mp-1225215,EuGaCu,-0.33231838333333386
mp-1101845,EuGaGe,-0.5931895374999989
mp-1213196,EuGaGe2O7,-2.4130362051136363
mp-1206706,EuGaO3,-2.6990097847500003
mp-1102975,EuGaPt,-0.9035447650000008
mp-1225124,EuGaSi,-0.5432731316666674
mp-1102160,EuGaSn,-0.5676633583333329
mp-1184442,EuGdRh2,-0.5603954512500007
mp-1225996,EuGdTi2O7,-3.5771803888257585
mp-20712,EuGe,-0.6986169074999999
mp-22116,EuGe2,-0.5160844250000002
mp-613206,EuGe2Ir,-0.6424094412500008
mp-1078610,EuGe3,-0.3600997699999997
mp-1068715,EuGe3Ir,-0.540438408
mp-1068422,EuGe3Pd,-0.5877496820000004
mp-1069658,EuGe3Rh,-0.5813687819999999
mp-1191379,EuGe7Ir3,-0.4328755577272729
mp-1191926,EuGe7Rh3,-0.4922718081818183
mp-9293,EuGeAu,-0.7360882566666666
mp-865181,EuGeO3,-2.6146931867500016
mp-20615,EuGePd,-0.7814501374999985
mp-1188312,EuGePd2,-0.7622419618750005
mp-19798,EuGePt,-0.9106419408333328
mp-581575,EuGeS3,-1.4587742211041672
mp-863015,EuH32C8N4Cl7,-0.6517612473688459
mp-644246,EuH3Pd,-0.6031874661719996
mp-774926,EuH4S2NO8,-1.9212274784365613
mp-1096948,EuH6CI3N,-0.7562880506541662
mp-1190587,EuH9C5(NO4)2,-1.2307119624435996
mp-1070860,EuHCl,-1.7625875706266665
mp-1078670,EuHO3,-1.7680936854739997
mp-560128,EuHSO5,-2.378679595804062
mp-753781,EuHfO3,-3.73588097275
mp-1190059,EuHfS3,-2.2080728394375
mp-11375,EuHg,-0.5439457975000002
mp-20719,EuHg2,-0.4661692083333324
mp-1184270,EuHg2Bi,-0.4082177449999991
mp-1184462,EuHg2Pb,-0.4010023587499996
mp-1080132,EuHg3,-0.40909871499999984
mp-977581,EuHgAu2,-0.5239663187499994
mp-1184359,EuHgO3,-1.4174480117499997
mp-1018698,EuHgPb,-0.4512047116666669
mp-1213002,EuHo2O4,-3.761650193214286
mp-1184452,EuHo3,0.14511188250000107
mp-1102093,EuI2,-1.6236194649999998
mp-31361,EuIBr,-1.8200672566666656
mp-1212725,EuICl,-2.1712330002533333
mp-600622,EuIO,-2.3854122887500004
mp-1058490,EuIn,-0.4678211841666666
mp-636316,EuIn2,-0.4694455422222218
mp-1095411,EuIn2(GeIr)4,-0.4797258828787882
mp-639496,EuIn2Au,-0.5284902866666671
mp-19997,EuIn2Ni,-0.3666898004166672
mp-21258,EuIn2Pd,-0.6146039204166662
mp-21487,EuIn2Rh,-0.5392337566666665
mp-1184378,EuIn3,-0.3513401812500003
mp-638253,EuIn4,-0.2543644356666661
mp-1102671,EuIn4Au,-0.3686568913888889
mp-1095660,EuIn4Cu,-0.2665720597222219
mp-1095333,EuIn4Ir,-0.3583473488888889
mp-1103002,EuIn4Ni,-0.3318411822222214
mp-22008,EuIn4Pd,-0.4626172038888896
mp-1213431,EuIn6Ni7,-0.19694827785714306
mp-1184437,EuInAg2,-0.2616466920833336
mp-19901,EuInAu,-0.6667436061111118
mp-866021,EuInAu2,-0.5868024045833327
mp-1184408,EuInHg2,-0.4216226995833332
mp-1006242,EuInNi5,-0.1844106047619048
mp-1212980,EuInO3,-2.5812984387500006
mp-22322,EuInPd,-0.6993970644444449
mp-21051,EuInPt,-0.8385529869444449
mp-1077596,EuInPt4,-0.6945324163888884
mp-1101788,EuInRh,-0.5619707519444445
mp-995,EuIr2,-0.4846956866666664
mp-1184445,EuIrO3,-1.89954014975
mp-984697,EuLu2O4,-3.831234886428569
mp-1212752,EuLuCuS3,-1.9986967020312496
mp-1184309,EuLuO3,-3.25637537975
mp-21253,EuMg,-0.0647302974999997
mp-1213294,EuMg(BO2)5,-2.992973241813725
mp-1185299,EuMg149,-0.020369577833333208
mp-1184321,EuMg2,-0.1079358783333338
mp-13223,EuMg2Cu9,-0.1305797829166663
mp-1067840,EuMg2Fe,0.3910352737499991
mp-1188846,EuMg2H5,-0.31211010163749986
mp-1184300,EuMg3,-0.05018791374999987
mp-1019726,EuMg3SiN4,-1.1493384805022229
mp-1184282,EuMg5,-0.03670145249999971
mp-1212683,EuMgAg,-0.2694416691666663
mp-1184290,EuMgCd2,-0.2624928762499996
mp-9539,EuMgF4,-3.910337582459999
mp-867152,EuMgGe,-0.571004341666665
mp-643756,EuMgH4,-0.4841650407466662
mp-861928,EuMgHg2,-0.4257546637499994
mp-1103210,EuMgNi,-0.023878984166665642
mp-972931,EuMgO3,-2.5486367257499998
mp-1102076,EuMgPd,-0.6019949291666661
mp-1102652,EuMgSi,-0.4443987258333332
mp-1102145,EuMgSn,-0.5677620924999994
mp-1184347,EuMgTl2,-0.3090607162499994
mp-1184328,EuMgZn2,-0.2145937087499994
mp-622520,EuMn2O5,-2.389600928208752
mp-641487,EuMn4(CuO4)3,-1.7709913531919994
mp-1078314,EuMnBi2,-0.2700835112500002
mp-1225294,EuMnIn,0.05410289388888975
mp-25667,EuMnO3,-2.665597616442
mp-608717,EuMoClO4,-2.445688636894285
mp-1213225,EuMoO2,-2.0717122056249995
mp-1184411,EuMoO3,-2.558770491749999
mp-1095254,EuMoO4,-2.7219926866666646
mp-686947,EuMoO4F,-2.71838570517
mp-1212798,EuMoO5,-2.2915312901785714
mp-1072167,EuN2,0.6445351150800013
mp-1204428,EuN3O14,-0.536475896091111
mp-1201130,EuNb2O6,-3.249347208888888
mp-1184454,EuNb3,0.6082809287500002
mp-21593,EuNb8O14,-2.8549936394565214
mp-1225127,EuNbNO2,-2.492967041976001
mp-1078341,EuNbO3,-3.1549390137500013
mp-12646,EuNbO4,-3.197899845
mp-21064,EuNi2B2C,-0.3559355311805549
mp-974834,EuNi3,0.17934487374999894
mp-22311,EuNi5,-0.1631445024999998
mp-16838,EuNi5As3,-0.5399201355555555
mp-582367,EuNi5P3,-0.7485323462698419
mp-1213407,EuNi9Ge4,-0.1599557382142852
mp-5887,EuNiGe,-0.5790890083333325
mp-1080556,EuNiGe2,-0.6030950262500001
mp-32341,EuNiO3,-1.9752163447499995
mp-1206697,EuNiP,-0.9684765157142852
mp-1213363,EuNpO3,-3.427488678499998
mp-1018700,EuO2,-2.5064108625
mp-1206483,EuO3,-1.7171914771875
mp-22338,EuOF,-3.5699621474800005
mp-977370,EuOsO3,-2.057007514749999
mp-20300,EuP,-1.0208802435714297
mp-1079534,EuP3,-0.6776017541071431
mp-566534,EuP5O14,-2.712705079785714
mp-1195922,EuP7,-0.34021179968750026
mp-22783,EuPAu,-0.9144335273809526
mp-555522,EuPH5CO7,-1.9201257855161904
mp-1095517,EuPIr,-1.0526523932142855
mp-3219,EuPO4,-3.1245632632738087
mp-20706,EuPPd,-1.0751742557142852
mp-20217,EuPS3,-1.4905217493660734
mp-20742,EuPSe3,-0.9209356395848208
mp-676409,EuPaO4,-3.843540809999999
mp-20394,EuPb,-0.4983290724999998
mp-20309,EuPb3,-0.38776573125
mp-1184451,EuPbAu2,-0.5452627437500004
mp-1184348,EuPbO3,-2.00750751975
mp-1854,EuPd2,-0.708066
mp-636279,EuPd3,-0.5536259887499995
mp-20961,EuPd3S4,-1.16724073828125
mp-1184369,EuPdO3,-1.8081548677500003
mp-22797,EuPt2,-0.9521201449999998
mp-976258,EuPtO3,-1.7552390917500005
mp-1184467,EuPuRh2,0.13132787203124965
mp-1101994,EuRe2,0.2274818741666659
mp-976320,EuReO3,-2.3622496652500002
mp-623827,EuRh2,-0.4247074750000017
mp-21076,EuRh3C,-0.20501559475000025
mp-866036,EuRuO3,-2.1685635967500003
mp-1232155,EuS2,-1.8293115035416683
mp-1184315,EuS3,-1.1232884692968748
mp-616175,EuSO4,-2.735360893593749
mp-611062,EuSb2,-0.7117583916666668
mp-22475,EuSbAu,-0.8608208883333338
mp-510637,EuSbO4,-2.511595365416666
mp-1101822,EuSbPd,-0.9596887208333342
mp-20923,EuSbPt,-1.0066166100000011
mp-1077831,EuScGe,-0.6378042616666674
mp-1232230,EuSe2,-1.3531700390624988
mp-639138,EuSeClO3,-2.1401472859339585
mp-755177,EuSeO3,-2.2633887074687493
mp-769334,EuSeO4,-2.1194791472656243
mp-21279,EuSi,-0.6268261974999998
mp-1072248,EuSi2,-0.5333299900000009
mp-560341,EuSi2(NO)2,-2.380307137465716
mp-1025553,EuSi2Ni,-0.6760801412499999
mp-1190872,EuSi2Ni9,-0.39248368125000016
mp-1225121,EuSi2PdAu,-0.677485475000001
mp-1212688,EuSi2Pt,-0.8607796775000001
mp-1069707,EuSi3Ir,-0.7331414070000009
mp-1225162,EuSi3Ni,-0.5674210189999996
mp-1068807,EuSi3Rh,-0.7233498950000012
mp-542709,EuSi6,-0.1058348292857149
mp-1225155,EuSiNi2Ge,-0.6187653019999999
mp-866030,EuSiO3,-3.0864457837500003
mp-1102440,EuSiPd,-0.7828473533333332
mp-1103258,EuSiPt,-1.025722075833335
mp-567833,EuSn,-0.6881173525
mp-22742,EuSn2Ir,-0.5909001349999992
mp-1195875,EuSn3Sb4,-0.27770208218749914
mp-21580,EuSnF7,-3.2932875573144447
mp-1018701,EuSnHg,-0.5588403133333338
mp-19794,EuSnP,-0.8059058790476191
mp-22031,EuSnPd,-0.8079655808333328
mp-608517,EuSnPt,-0.9285321391666675
mp-1184434,EuSnRh2,-0.4760697949999999
mp-505434,EuTa2O6,-3.4913573397222217
mp-1225272,EuTa3O9,-3.3713121397115366
mp-1225199,EuTaNO2,-2.689849179976001
mp-5957,EuTaO4,-3.3679284083333343
mp-1184447,EuTcO3,-2.437799087750001
mp-1225161,EuTe2Pb,-1.04989717625
mp-1184539,EuTh3,0.1530557400000001
mp-684730,EuTi2CdO6F,-3.0492471747293943
mp-505238,EuTiAgO4,-2.675324602380953
mp-555860,EuTiClO3,-3.2027299147794444
mp-1225394,EuTiNbBi2O9,-2.7267658648511914
mp-603081,EuTl(MoO4)2,-2.25880047625
mp-1212775,EuTl(WO4)2,-2.3120607649999982
mp-30630,EuTl2,-0.3138384316666662
mp-861902,EuTl2Cd,-0.25726274999999976
mp-3891,EuTl2Pd,-0.4305600737499997