task_id,composition,formation_energy_per_atom
mp-1228878,Ba10CaY4(Cu3O7)5,-2.150861856326923
mp-1229198,Ba10Co7(IrO10)3,-2.063685798550001
mp-1229200,Ba10Cu5Hg5O21,-1.9305936503963408
mp-766417,Ba10Cu5O17,-2.2213142753515625
mp-1229210,Ba10Er5Cu15O34,-2.215832203554688
mp-1228981,Ba10Fe8Pt2Cl2O25,-2.3052956682504258
mp-30430,Ba10Ga,0.05950676409090925
mp-1229059,Ba10Gd2Y3(Cu3O7)5,-2.184999873596153
mp-1229307,Ba10Gd3Y2(Cu3O7)5,-2.187533092980769
mp-1229238,Ba10Gd4Y(Cu3O7)5,-2.1837219112884614
mp-1229303,Ba10GdY4(Cu3O7)5,-2.1883732112884613
mp-1228879,Ba10Ge7O3,-1.2199664299375002
mp-1229045,Ba10Ho5(Cu5O11)3,-2.2161634275595237
mp-1228784,Ba10IBr4N5,-1.2465789090949997
mp-774832,Ba10Li2Bi4O21,-2.3818790617905403
mp-773964,Ba10LiW7O30,-2.71326875078125
mp-686330,Ba10Mg3ZrTa6O30,-3.34250258145
mp-1228946,Ba10MgMn3V8(Cl3O7)4,-2.7526843426935472
mp-1228897,Ba10Nd4Y(MoO6)5,-3.0511617633499997
mp-16990,Ba10P6SO24,-3.2790431387053567
mp-1229245,Ba10Pr2Y3(Cu3O7)5,-2.1749656089807687
mp-1229131,Ba10Pr4Y(CuO2)20,-2.0463134377333336
mp-1228864,Ba10Pr5Ir(Ru2O15)2,-2.7346540641499995
mp-691043,Ba10Pr5Nb(Sn2O15)2,-2.93062109255
mp-1228989,Ba10PrY4(Cu3O7)5,-2.1864621554423067
mp-1229203,Ba10PrY4(CuO2)20,-2.063983652666666
mp-1203847,Ba10Re3O22,-2.6753829879999995
mp-1228940,Ba10Re6CO30,-2.5900391742819147
mp-1228911,Ba10Ru3W(Cl2O9)2,-2.5983840005705563
mp-1229228,Ba10Si69,-0.09181605240506396
mp-1229115,Ba10Sm5(Cu5O11)3,-2.1964127329166656
mp-40160,Ba10Ta10(N3O7)3,-2.7350084101534
mp-1228979,Ba10Ti8NbNiO30,-3.3259941844166674
mp-766994,Ba10V10O29,-2.8456517618622432
mp-1229106,Ba10Y5(Cu5O11)3,-2.2055672143055562
mp-1229144,Ba10Y5(Fe5O12)3,-2.555349137045454
mp-1229067,Ba10Y5Cu15O32,-2.2179734793548387
mp-1228903,Ba10Y5Cu15O34,-2.2023715431640625
mp-1229016,Ba10Zn4Cu(WO6)5,-2.61259686495
mp-1228932,Ba11(Bi3O10)3,-2.27679277525
mp-655147,Ba11(Cd4Bi7)2,-0.6554398784848485
mp-570121,Ba11(CdSb2)6,-0.8405243889655172
mp-676580,Ba11(Nb3S14)2,-1.8597158005277776
mp-559484,Ba11(OsO6)4,-2.550312696025641
mp-676889,Ba11(Ta3S13)2,-1.9685488047819757
mp-1195112,Ba11B26P2(H3O29)2,-2.9499819415227093
mp-542293,Ba11Bi10,-0.8826900983333329
mp-605809,Ba11In6O3,-1.1209790694375006
mp-542428,Ba11Sb10,-1.0072058778571429
mp-1195315,Ba12(CoO3)11,-2.1217142949330343
mp-1228710,Ba12Br3Cl2F19,-3.834869836503611
mp-560641,Ba12Cl5F19,-3.925047597330833
mp-1228928,Ba12FeSi3S20,-2.0328734144791683
mp-1228797,Ba12MnRu5(ClO6)4,-2.479406379108697
mp-567643,Ba12Na15Li8N6,-0.28042344851902445
mp-1229173,Ba12Sm4Al3(CoO6)5,-2.8685872984722214
mp-1229266,Ba12SrCa3(Ru2O9)4,-2.476313718958333
mp-1228785,Ba12V4O19,-2.8285531572500004
mp-1229148,Ba13B30(PbO30)2,-3.023114088523809
mp-758120,Ba13Bi11O36,-2.271540045333334
mp-1229338,Ba13Ca2Re9(ClO15)3,-2.7973240299795843
mp-555356,Ba13Dy8Zn4Pt4O37,-2.852499608276516
mp-757571,Ba13Nb14O42,-3.2026814745289847
mp-695535,Ba13Ru10BrO36,-2.193980825416667
mp-1197065,Ba13Si6(Sn4As11)2,-0.6808854893877556
mp-530714,Ba14AlSb11,-1.0272725661538458
mp-738639,Ba14Ir8(PdO11)3,-2.127040783354885
mp-774711,Ba14LiY7(Cu10O21)2,-2.2687711746726182
mp-567518,Ba14MnBi11,-0.8716245581730768
mp-532211,Ba14MnSb11,-0.9923256554807692
mp-645700,Ba14Na11Li5N6,-0.2567846905355553
mp-6645,Ba14Na14CaN6,-0.3303912237651425
mp-645662,Ba14Na14LiN6,-0.31027034383657104
mp-542834,Ba14Na17CaN6,-0.298634302283684
mp-570644,Ba14Na21CaN6,-0.2722842380185717
mp-570449,Ba14Na7CaN6,-0.4009959623850001
mp-777942,Ba14Na8CaN6,-0.3850609038544828
mp-1229282,Ba14U2Fe4S25O,-2.010851455713316
mp-1229227,Ba14U2V4S25O,-2.056644347017663
mp-774710,Ba14Y7(Cu10O21)2,-2.259129039909638
mp-620609,Ba15(ZrSe3)14,-1.665093751632922
mp-680291,Ba15Fe7S25,-1.8140380071077136
mp-532092,Ba16Bi16O45,-2.18882877150974
mp-1228969,Ba16Ca2HC12N25O4,-1.2174229998853339
mp-30001,Ba16Nb5N19,-1.0255315406305001
mp-1197806,Ba16Re6O37,-2.808291473072034
mp-760205,Ba16S16O59,-2.8026158991071437
mp-677468,Ba16Tb8Nb5(SnO16)3,-3.2548567081458346
mp-1229324,Ba16Zn9Ge80Pd3,-0.30692491458333393
mp-679951,Ba17Al3O7,-1.453469263935186
mp-556377,Ba17Dy16Zn8Pt4O57,-3.0057361199142165
mp-561249,Ba17Er16Zn8Pt4O57,-3.0204727325612746
mp-555188,Ba17Ho16Zn8Pt4O57,-3.0138810677573526
mp-1229199,Ba17SrSm12Cl68,-2.787880082466122
mp-557741,Ba17Tm16Zn8Pt4O57,-3.0315580874632366
mp-759291,Ba17U11O42,-3.489165398035716
mp-560146,Ba17Y16Zn8Pt4O57,-2.985467691286765
mp-680165,Ba17Yb16Zn8Pt4O57,-2.609965836875
mp-1204693,Ba18In8(S7F6)3,-2.7326409367446023
mp-695389,Ba18Pr9Sn4Sb5O54,-2.9119640796944446
mp-684007,Ba19(InN)9,-0.5159507896329733
mp-569841,Ba19Li44,0.007735460634920727
mp-569025,Ba19Na29Li13,-0.017501062459016285
mp-1228156,Ba2(AlAg)5,-0.2812163575
mp-1228507,Ba2(CaAl3)3,-0.28771147732142816
mp-1228706,Ba2(CrS2)5,-1.403325020919118
mp-615789,Ba2(CuO2)3,-1.7941069961363638
mp-644875,Ba2(InAs)5,-0.5358807707638888
mp-642642,Ba2(InP)5,-0.4980185968650801
mp-510508,Ba2(IrO3)3,-1.8783230679464284
mp-532273,Ba2(Mo2S3)3,-1.3949410862683824
mp-29219,Ba2(Ni3B2)3,-0.2894741088235297
mp-29087,Ba2(SnSb2)3,-0.4156978047727277
mp-685008,Ba20As13,-1.0671929263636362
mp-1197757,Ba20Cd4Hg99,-0.30512464447154475
mp-1229333,Ba20Ga5Ru7O44,-2.521497370789473
mp-1201907,Ba20Hg103,-0.3048339343902439
mp-685931,Ba20Nb19Se60,-1.273155257531566
mp-1229136,Ba20Ru11PtO48,-2.3518535308124995
mp-686442,Ba20Y10Cu(Ru3O20)3,-2.811891874099999
mp-1196499,Ba20Zn5Hg99,-0.29325069375
mp-1215155,Ba21(Cd2Bi9)2,-0.8514467224999998
mp-684034,Ba21(Cd2Sb9)2,-0.977590436976744
mp-567701,Ba21Al40,-0.2337002362295081
mp-559274,Ba21Ge2O5,-1.0497198479017855
mp-563032,Ba21Si2O5,-1.0107018846874998
mp-530905,Ba23U8O48,-3.295146955696202
mp-677705,Ba24In19N11,-0.4025469438798763
mp-685509,Ba25(Bi5O18)3,-2.3075757028989368
mp-1228614,Ba2Ag8S7,-0.8145033613786765
mp-1097642,Ba2AgAu,0.8312434325
mp-1183207,Ba2AgBi,-0.6538607837500003
mp-1093547,Ba2AgHg,0.941461645
mp-1206237,Ba2AgIO6,-1.8914407707499998
mp-1093824,Ba2AgPd,0.875070075
mp-984720,Ba2AgSb,-0.7220974262500004
mp-691076,Ba2Al4Si6H14O27,-1.9277159729137745
mp-1042222,Ba2AlAg3O8,-1.4015210964285711
mp-1042329,Ba2AlBi3O8,-1.858116468928572
mp-1044813,Ba2AlCo2F11,-3.433836624255625
mp-1048180,Ba2AlCo3O8,-1.9969657835714283
mp-1044788,Ba2AlCr2F11,-3.617854534255624
mp-1048330,Ba2AlCr3O7,-2.3357648791346155
mp-1048171,Ba2AlCr3O8,-2.4342095435714284
mp-561318,Ba2AlCu2F11,-3.2534249050889588
mp-1048073,Ba2AlCu3O7,-1.8695914622115384
mp-1042435,Ba2AlCu3O8,-1.755902345714286
mp-1228786,Ba2AlCuF9,-3.5661724942853845
mp-1044845,Ba2AlFe2F11,-3.5666547048806265
mp-1048504,Ba2AlFe3O7,-2.305963912980769
mp-1048153,Ba2AlFe3O8,-2.2655463164285714
mp-1228405,Ba2AlGa3,-0.3961648899999997
mp-698114,Ba2AlH7,-0.512289078034
mp-1228416,Ba2AlIn3,-0.4068844716666667
mp-556282,Ba2AlInO5,-2.887440196342592
mp-1048236,Ba2AlMo3O8,-2.288209949285715
mp-1044802,Ba2AlNi2F11,-3.332585445505625
mp-1048483,Ba2AlNi3O7,-1.7214240806730765
mp-1048224,Ba2AlNi3O8,-1.6549155085714289
mp-1042580,Ba2AlSb3O8,-2.018494891785714
mp-1044546,Ba2AlSn2F11,-3.495840285922293
mp-1048096,Ba2AlSn3O7,-1.9577993433653849
mp-1042344,Ba2AlSn3O8,-2.140519088214286
mp-1095859,Ba2AlTl,1.1162898837499995
mp-1046381,Ba2AlTlCo2O7,-2.106204586442307
mp-1048438,Ba2AlTlCr2O7,-2.2393145895192315
mp-1046001,Ba2AlTlCu2O7,-1.8796489095192304
mp-1046349,Ba2AlTlFe2O7,-2.018094300288462
mp-1048433,Ba2AlTlNi2O7,-1.7448643395192298
mp-1046027,Ba2AlTlSn2O7,-1.9498722525961545
mp-1046436,Ba2AlTlV2O7,-2.3933724187499994
mp-1046389,Ba2AlTlW2O7,-1.7927293125961534
mp-1044800,Ba2AlV2F11,-3.6450651919639583
mp-1048346,Ba2AlV3O7,-2.357687502980768
mp-1048162,Ba2AlV3O8,-2.5711207742857147
mp-1044860,Ba2AlW2F11,-3.1195646417556246
mp-1045008,Ba2AlW3O7,-1.80512741375
mp-1048143,Ba2AlW3O8,-1.973411354285714
mp-1228674,Ba2AlZnF9,-3.761501168516154
mp-2768,Ba2As,-0.8235977966666663
mp-1194732,Ba2As2O7,-2.5216897939772727
mp-28134,Ba2As2S5,-1.4629977504513891
mp-28348,Ba2As2Se5,-1.036126825052084
mp-757280,Ba2As6O11,-2.078352256776316
mp-861937,Ba2AsAu,-0.9456799662499996
mp-1096666,Ba2AsBr,-0.3431659062499999
mp-1087236,Ba2AsSe4O3,-1.0405244533125
mp-1232309,Ba2Au(CO)2,-0.8759891221428576
mp-1214745,Ba2B(PO4)2,-2.916443961611721
mp-1019522,Ba2B10O17,-3.0052823968247124
mp-1196038,Ba2B11H7O22,-2.609199052408889
mp-1198263,Ba2B2AsH3F18,-3.05142582175436
mp-771158,Ba2B2O5,-3.1547303671759246
mp-30105,Ba2B4Se13,-0.553875545309759
mp-1214841,Ba2B5BrO9,-2.990220494093137
mp-555742,Ba2B5ClO9,-3.0684821113437235
mp-1198110,Ba2B5HO10,-2.9528318976085184
mp-1198603,Ba2B5O11,-2.7228249578935184
mp-1199077,Ba2B6H4O13,-2.6672444324292006
mp-1194549,Ba2B6PbO12,-2.9173205778571427
mp-568923,Ba2BN2Cl,-1.6377937595311107
mp-631574,Ba2BeGa,0.39748090375
mp-679630,Ba2BeS(OF)4,-2.788740545735209
mp-567872,Ba2Bi,-0.7655106100000003
mp-1044589,Ba2Bi2F11,-3.1470960958726666
mp-28670,Ba2Bi2O5,-2.2992286245833324
mp-569529,Ba2Bi3,-0.7708745109999999
mp-1048204,Ba2Bi3O7,-1.9866181111458336
mp-674537,Ba2Bi6O11,-1.7178660101973684
mp-862947,Ba2BiAu,-0.8602866212499998
mp-1078727,Ba2BiIrO6,-2.1363357292500007
mp-561147,Ba2BiRuO6,-2.207723295750001
mp-23127,Ba2BiSbO6,-2.46701621275
mp-1206930,Ba2Br2F,-1.6822112772380002
mp-1079891,Ba2Br2O,-2.56487080725
mp-1018098,Ba2BrN,-1.283090858095
mp-8271,Ba2Ca(BO2)6,-3.1280861734523806
mp-549737,Ba2Ca(BO3)2,-3.2382036516666672
mp-1203389,Ba2Ca(PO4)4,-2.5552031956987578
mp-17380,Ba2Ca(PdO2)3,-2.0277544987500007
mp-22601,Ba2Ca2Cu3HgO8,-2.0566122215625007
mp-1214800,Ba2Ca2EuTi3(CuO7)2,-2.951154639479168
mp-1046494,Ba2Ca2Mn3Tl2O10,-2.2405562363357894
mp-1214747,Ba2Ca2NdTi2(CuO6)2,-2.9332056662301587
mp-1214744,Ba2Ca2TbTi3(CuO7)2,-3.0342475681597225
mp-1046109,Ba2Ca2Ti3Tl2O10,-2.7979742019736844
mp-1046474,Ba2Ca2Tl2Co3O10,-2.0159158630263154
mp-1046503,Ba2Ca2Tl2Cr3O10,-2.277025419342104
mp-653154,Ba2Ca2Tl2Cu3O10,-1.9405634867105268
mp-1046475,Ba2Ca2Tl2Fe3O10,-2.151223971973684
mp-1046512,Ba2Ca2Tl2Ni3O10,-1.7568034224999998
mvc-2768,Ba2Ca2Tl2Sn3O10,-2.171726159605264
mp-1046558,Ba2Ca2Tl2W3O10,-1.9988536188157888
mp-694875,Ba2Ca2Zn5Fe3O14,-2.064711256057692
mp-1228579,Ba2Ca3Cu4HgO10,-2.0660169032499995
mp-1048549,Ba2Ca3Mn4Tl2O12,-2.2677307339713035
mp-1047819,Ba2Ca3Ti4Tl2O12,-2.854893385398552
mvc-122,Ba2Ca3Tl2(CoO3)4,-1.9715765890217407
mp-556574,Ba2Ca3Tl2(CuO3)4,-1.9863175120652168
mvc-145,Ba2Ca3Tl2(FeO3)4,-2.10760983902174
mp-1048352,Ba2Ca3Tl2(NiO3)4,-1.7548016733695655
mp-1048012,Ba2Ca3Tl2(SnO3)4,-2.1351116172826097
mvc-248,Ba2Ca3Tl2(WO3)4,-1.947721238586957
mvc-149,Ba2Ca3Tl2Cr4O12,-2.3239314372826083
mp-1048633,Ba2Ca3Tl2V4O12,-2.373090567717392
mp-1228589,Ba2Ca3TlCu4O11,-2.0577269652976184
mp-766303,Ba2Ca7I18,-1.6074976786111108
mp-1214698,Ba2CaBiO6,-2.456925051
mp-1229095,Ba2CaCeGd2Ti2(CuO7)2,-3.1740498257638903
mvc-2242,Ba2CaCo2CuF14,-3.0912430752080007
mp-641162,Ba2CaCr2CuF14,-3.425908286208
mvc-14958,Ba2CaCr2F14,-3.4001769017978947
mp-6879,Ba2CaCu2HgO6,-2.0268058612500006
mp-1232340,Ba2CaCu2MoO8,-2.2955038298214285
mp-1045459,Ba2CaCu3F14,-2.8970745882079987
mp-1045649,Ba2CaCuAg2F14,-2.7186761199580003
mp-1045638,Ba2CaCuBi2F14,-3.2682747439580013
mp-1045884,Ba2CaCuMo2F14,-3.3254989684580005
mp-1046122,Ba2CaCuNi2F14,-2.9239361317079995
mp-1045646,Ba2CaCuSb2F14,-3.2344893544580002
mvc-2039,Ba2CaCuSn2F14,-3.237065236208
mp-1228757,Ba2CaEu2Ti3(CuO7)2,-3.000687712708334
mp-1214725,Ba2CaFe2CoF14,-3.390841508958
mp-622251,Ba2CaFe2CuF14,-3.3148819912080003
mp-1214730,Ba2CaGa2CuF14,-3.395071483458
mp-756725,Ba2CaI6,-1.7411784602777776
mp-20841,Ba2CaIrO6,-2.5491023965000004
mp-540862,Ba2CaMgAl2F14,-4.063641940208
mp-1045850,Ba2CaMn2CuF14,-3.3134422013039995
mp-1214779,Ba2CaMnFe2F14,-3.482309772256001
mp-1214724,Ba2CaMnV2F14,-3.654327381256
mp-19403,Ba2CaMoO6,-2.9489482305
mp-1214679,Ba2CaNbO6,-3.1012839045000007
mp-6739,Ba2CaOsO6,-2.6875825090000007
mp-758007,Ba2CaP4(H3O8)2,-2.60806817026867
mp-12417,Ba2CaReO6,-2.931377920250001
mp-1019518,Ba2CaSi4(BO7)2,-3.328133496884058
mp-1214757,Ba2CaSm2Ti3(CuO7)2,-3.116446019166668
mp-1228548,Ba2CaTb2Ti3(CuO7)2,-3.1415436171527786
mp-550685,Ba2CaTeO6,-2.8016945465
mvc-3436,Ba2CaTi2CuF14,-3.7018677013746673
mvc-13047,Ba2CaTl2(CuO3)4,-1.4611337624999996
mp-6885,Ba2CaTl2(CuO4)2,-1.8901273225
mp-632802,Ba2CaTlCu2O7,-1.9900981908653843
mp-557448,Ba2CaUO6,-3.564220684
mvc-12280,Ba2CaV2(P2O9)2,-2.9156570316137578
mp-1203415,Ba2CaV2CoF14,-3.5499795274580013
mp-641854,Ba2CaV2CuF14,-3.4762487619580003
mp-1214736,Ba2CaV2FeF14,-3.617150546208
mp-669377,Ba2CaWN4,-1.1547232302525003
mp-19182,Ba2CaWO6,-3.0367743805000003
mp-1228573,Ba2CaY(Co4O7)2,-2.0132767959615383
mp-8093,Ba2Cd,-0.2334279016666668
mp-1190588,Ba2Cd(BO2)6,-2.911638385714287
mp-1104453,Ba2Cd2As3,-0.768981077142857
mp-1104804,Ba2Cd2Sb3,-0.6923323107142859
mp-568744,Ba2Cd3Bi4,-0.4686822105555556
mp-1093931,Ba2CdAg,1.06163915125
mp-1079666,Ba2CdAs2,-0.941653746
mp-1096555,Ba2CdGa,1.11403143125
mp-1093582,Ba2CdGe,1.0431466225000003
mp-1228889,Ba2CdGe10,-0.2429815771153842
mp-1214739,Ba2CdGe2O7,-2.5228988344791667
mp-1183204,Ba2CdHg,-0.41931174625
mp-1183281,Ba2CdIn,-0.3726096995833335
mp-1207118,Ba2CdMoO6,-2.5202529472499995
mp-1206134,Ba2CdOsO6,-2.2441685067500003
mp-1188260,Ba2CdP3O11,-2.834131030892858
mp-1199629,Ba2CdP4(H3O8)2,-2.4416577386307385
mp-867333,Ba2CdPb,-0.4890934012499999
mp-551702,Ba2CdReO6,-2.482506707000001
mp-18309,Ba2CdS3,-1.940255229114584
mp-16870,Ba2CdSe3,-1.5742370142968751
mp-1183198,Ba2CdSn,-0.515320155
mp-16904,Ba2CdTe3,-1.3281331612500002
mp-1229035,Ba2Ce2Ti2Fe(Si4O13)2,-3.333552301605691
mp-42307,Ba2Ce3Si3O12F,-3.6081299171995247
mp-6850,Ba2CeC3O9F,-2.8281573855431255
mp-1079632,Ba2CeNbO6,-3.388615079750001
mp-1228392,Ba2CePbO6,-2.88852610875
mp-21879,Ba2CePtO6,-2.81426277275
mp-1078874,Ba2CeTaO6,-3.4940486197499983
mp-1228396,Ba2CeZrO6,-3.5954143397500005
mp-1207049,Ba2Cl2F,-2.061116722542
mp-1018650,Ba2ClF3,-3.831861625305
mp-18735,Ba2Co(BO2)6,-2.8840419645238105
mp-505731,Ba2Co(PO4)2,-2.9519754959065945
mp-567145,Ba2Co2ClF7,-3.1461875038825
mp-1041033,Ba2Co2F11,-2.843875178983778
mp-1076439,Ba2Co2O5,-2.1030740334722218
mp-1048496,Ba2Co3O7,-1.7036428148958322
mp-1048116,Ba2Co3O8,-1.5764280707692315
mp-1228776,Ba2Co4BrO7,-1.784710636339286
mp-646670,Ba2Co4ClO7,-1.8831507515721424
mp-510717,Ba2Co9O14,-1.6200325663
mp-1078198,Ba2CoAg2(SeO)2,-1.3652670799652773
mp-635331,Ba2CoC2(O3F)2,-2.6486724271061544
mp-29812,Ba2CoCl6,-2.241164988006666
mp-1078706,Ba2CoCu2(SO)2,-1.5518009045138887
mp-555307,Ba2CoF6,-3.5349392285711114
mp-1190827,Ba2CoGe2O7,-2.5139528403125
mp-561894,Ba2CoMoO6,-2.51332457175
mp-1228387,Ba2CoNiS4,-1.4890657607812503
mp-19625,Ba2CoO4,-2.379611231428572
mp-558955,Ba2CoReO6,-2.475332215500001
mp-1228653,Ba2CoRuO6,-2.1584887252500002
mp-4544,Ba2CoS3,-1.7583419991145846
mp-629701,Ba2CoSe2(ClO3)2,-2.108007218939038
mp-542209,Ba2CoSi2O7,-3.082069026145833
mp-24843,Ba2CoWO6,-2.59223902475
mvc-13241,Ba2Cr2CuF14,-3.0538307977189474
mp-1048905,Ba2Cr2F11,-3.285687306983777
mp-1048539,Ba2Cr3O7,-2.1544514007291675
mp-1048124,Ba2Cr3O8,-2.200099790769229
mp-31751,Ba2Cr7O14,-2.418846010760869
mp-1214706,Ba2CrF6,-3.692189511348888
mp-1079901,Ba2CrMoO6,-2.6648354767500004
mp-1029843,Ba2CrN3,-0.9973091832733326
mp-566511,Ba2CrO4,-2.7371568228571426
mp-559180,Ba2Cu(BO3)2,-2.7557323591666663
mp-1203729,Ba2Cu(C2O3)6,-0.8009637514393942
mp-1182577,Ba2Cu(C3O8)2,-1.8526819685
mp-558012,Ba2Cu(PO3)6,-2.7542439794576725
mp-9372,Ba2Cu(PO4)2,-2.8866181010989007
mp-1147542,Ba2Cu(SBr)2,-1.782205136875
mp-1147581,Ba2Cu(SCl)2,-2.060416535663572
mvc-13032,Ba2Cu2HgO6,-1.5184915661363638
mp-772788,Ba2Cu2O5,-1.9330232901388893
mp-1194948,Ba2Cu2Te2P2O13,-2.28908068907313
mp-1199575,Ba2Cu2Te4Br2O11,-1.7371831997023814
mp-23129,Ba2Cu3(BrO2)2,-1.6999916268181814
mp-23085,Ba2Cu3(ClO2)2,-1.8943784819563627
mp-1228431,Ba2Cu3BrClO4,-1.7940964180236365
mp-28661,Ba2Cu3P4,-0.5930042126190477
mp-561174,Ba2Cu4Te4Cl4O11,-1.6599785738715995
mp-560007,Ba2Cu7(AsO4)6,-1.6394465638461548
mp-1228525,Ba2CuAg3(SnS4)2,-1.0960200720312503
mp-552934,Ba2CuBrO2,-2.28379482375
mp-1021669,Ba2CuC(NO)2,-1.4840088207512503
mp-551456,Ba2CuClO2,-2.451746929293334
mp-3879,Ba2CuF6,-3.4040170541266663
mp-22067,Ba2CuGe2O7,-2.395012095312501
mp-1022726,Ba2CuH6,-0.3943574946355557
mp-6562,Ba2CuHgO4,-1.964882913125
mp-561179,Ba2CuIO2,-2.1740039920833336
mp-1045817,Ba2CuMo2F14,-3.1143004445610534
mp-8790,Ba2CuO3,-2.2972398072916675
mp-1182377,Ba2CuO6,-1.4563198869444451
mp-1078741,Ba2CuOsO6,-2.1280875372500008
mp-1192522,Ba2CuP2O9,-2.651349155038265
mp-1097397,Ba2CuPd,1.0576304850000002
mp-1214731,Ba2CuSe2F,-0.8442810972295831
mp-11613,Ba2CuSi2O7,-2.9679862603125007
mvc-1739,Ba2CuSn2F14,-3.1168568208768432
mp-560502,Ba2CuTeO6,-2.1887848937500003
mp-561558,Ba2CuWO6,-2.4454369967500003
mp-6691,Ba2Dy(CuO2)4,-2.055311470666666
mp-1214700,Ba2Dy2Co4O11,-2.350714331776316
mp-545659,Ba2DyBiO6,-2.8406574042500004
mp-1214746,Ba2DyCl7,-2.856961775032
mp-1214693,Ba2DyCoCu2O7,-2.2540326122115384
mp-1214696,Ba2DyCu2HgO7,-2.1068373014423067
mp-622105,Ba2DyCu3O7,-2.1995193722115385
mp-1105698,Ba2DyGaSe5,-1.6460330542187491
mp-1105922,Ba2DyGaTe5,-1.2925141583333335
mp-1106127,Ba2DyInSe5,-1.6253807657002315
mp-1189860,Ba2DyInTe5,-1.2955334953703712
mp-1206026,Ba2DyMoO6,-3.08367557375
mp-12640,Ba2DyNbO6,-3.474126114750001
mp-13932,Ba2DyReO6,-3.0592307235
mp-6192,Ba2DySbO6,-3.1086570462500007
mp-1206435,Ba2DyTaO6,-3.59744404675
mp-1205693,Ba2DyUO6,-3.66750883575
mp-6583,Ba2Er(CuO2)4,-2.058060148333333
mp-1214824,Ba2Er2CuPtO8,-2.7032940573214286
mp-1228586,Ba2Er2Zn8O13,-2.38341721585
mp-651358,Ba2ErCl7,-2.8505573335320014
mp-1214699,Ba2ErCoCu2O7,-2.2562726379807687
mp-622110,Ba2ErCu3O7,-2.2036185041346155
mp-1214712,Ba2ErCuNi2O7,-2.1367986618269232
mp-1105790,Ba2ErGaSe5,-1.6416794997743054
mp-1105724,Ba2ErGaTe5,-1.2853816155555553
mp-1188122,Ba2ErInSe5,-1.6211641329224535
mp-1106146,Ba2ErInTe5,-1.2877884364814816
mp-1205628,Ba2ErMoO6,-3.1023031102499985
mp-6653,Ba2ErNbO6,-3.4941853302500014
mp-1205977,Ba2ErReO6,-3.0766571870000017
mp-6621,Ba2ErRuO6,-2.8784545827500003
mp-6231,Ba2ErSbO6,-3.1238608287500007
mp-1205803,Ba2ErTaO6,-3.616992949250002
mp-1206292,Ba2ErUO6,-3.6872458322500004
mp-1214708,Ba2ErZn2CuO7,-2.3975217787500003
mp-1214709,Ba2Eu(CuO2)4,-1.9218571183333324
mp-616471,Ba2Eu2Ti2Cu2O11,-2.8656246908991236
mp-566287,Ba2Eu2ZnPtO8,-2.5007791910714294
mp-565412,Ba2Eu3Mn2(CuO6)2,-2.45379668152
mp-1102914,Ba2Eu3Si7,-0.5002992945833332
mp-29550,Ba2EuCl7,-2.684358761032
mp-1214711,Ba2EuCoCu2O7,-2.1037552749038464
mp-1214738,Ba2EuCu2HgO7,-1.95450601875
mp-622211,Ba2EuCu3O7,-2.043515461057692
mp-1205758,Ba2EuMoO6,-2.9149733142500014
mp-13323,Ba2EuNbO6,-3.231622479250001
mp-504674,Ba2EuReO6,-2.905619084
mp-1205665,Ba2EuRuO6,-2.636808564750001
mp-21370,Ba2EuSbO6,-2.86557208575
mp-1228610,Ba2EuTa3Ti2O15,-3.452281862481883
mp-21348,Ba2EuTaO6,-3.34748863725
mp-1214722,Ba2Fe2ClF7,-3.3112439909658336
mvc-12243,Ba2Fe2CuF14,-2.8807664214031576
mp-1196071,Ba2Fe2O5,-2.4217380841071425
mp-554327,Ba2Fe2S2OF2,-2.5062061235283344
mp-561844,Ba2Fe2Se2OF2,-2.322914520090833
mp-1196377,Ba2Fe3(P2O9)2,-2.45029943383598
mp-553998,Ba2Fe3F10,-3.307884645293333
mp-1048495,Ba2Fe3O7,-1.917104264895834
mvc-11008,Ba2Fe3O8,-1.9277097207692304
mp-735530,Ba2Fe3P6HO22,-2.6931738437934456
mp-1228429,Ba2Fe4AsP3,-0.7440745091428568
mp-1228508,Ba2Fe4Bi2O11,-1.965868172828949
mp-1228606,Ba2Fe5BiPb2O13,-1.9521588361413045
mp-652683,Ba2Fe6O11,-2.145531121381579
mp-1228686,Ba2Fe8Ni3(SbO11)2,-1.8901341577702704
mp-1202506,Ba2FeBiS5,-1.5355430236458336
mp-1214726,Ba2FeBrO3,-2.471015871249999
mp-1228629,Ba2FeCoClF7,-3.2284448572158326
mp-562025,Ba2FeCoF9,-3.3691572829392302
mp-1190820,Ba2FeGe2O7,-2.580669469062499
mp-18995,Ba2FeMoO6,-2.5778289737499995
mp-561699,Ba2FeO4,-2.4722461689285717
mp-31756,Ba2FeReO6,-2.550469397500001
mp-1191874,Ba2FeS3,-1.6717984282812506
mp-1199946,Ba2FeSbS5,-1.5230614778125005
mp-1191973,Ba2FeSe3,-1.389462124713542
mp-18845,Ba2FeWO6,-2.606284485750001
mp-1228575,Ba2Ga11BiO20,-2.387049030588235
mp-862682,Ba2Ga2O5,-2.541943047361109
mp-18421,Ba2Ga2S5,-1.758366601145834
mp-778485,Ba2Ga6O11,-2.5398936673026307
mp-1228403,Ba2Ga7Ag,-0.4039804399999998