task_id,composition,formation_energy_per_atom
mp-1213412,Gd4Si2Ni2Bi,-0.7676608008333342
mp-1204595,Gd4Si2S3O7,-3.2815758108398434
mp-558965,Gd4Si2Se3O7,-3.100485855283204
mp-554519,Gd4Ti(SeO)4,-2.8418074673878206
mp-757215,Gd5(AsO6)2,-3.1719403639473684
mp-866789,Gd5(C2Cl)3,-1.029238720877142
mp-673761,Gd5(RuO7)2,-2.770324864642857
mp-676156,Gd5AgS8,-2.2110136173214285
mp-685977,Gd5AgSe8,-1.6687703749107154
mp-1212669,Gd5B3O13,-3.4027998938690494
mp-1199531,Gd5C2Cl9,-2.2097999460525
mp-581831,Gd5CuBi3,-0.6668173727777761
mp-1198083,Gd5Ge4,-0.8407361380555566
mp-1199296,Gd5P12Ru19,-0.8535246875198399
mp-1106250,Gd5Pb3,-0.5342307018749999
mp-1225149,Gd5Si2BO13,-3.677550639424605
mp-1199486,Gd5Si4,-0.7226660941666663
mp-752459,Gd5Y3O12,-3.9343826057499998
mp-1200816,Gd6(Ga3Co)7,-0.4619538923529409
mp-621024,Gd6C3Cl5,-1.5780217580392857
mp-637600,Gd6CoBr10,-1.5919875752941175
mp-1205464,Gd6CoCl10,-2.217193244858823
mp-1194558,Gd6Fe23,0.114796862413792
mp-1192643,Gd6Mg23C,-0.05952237029166649
mp-1194710,Gd6Mn23,0.08500886068965632
mp-1195215,Gd6Mo10O39,-2.6340011611590897
mp-1224731,Gd6S3(OF4)2,-3.8386336344319747
mp-769780,Gd6WO12,-3.6237526228947363
mp-1193017,Gd6Zn23,-0.29408011396551725
mp-1213341,Gd7(BrO6)3,-2.0242035211607137
mp-685713,Gd7Ti8O26,-3.6665123664837416
mp-1224905,Gd7Y5Nb4O28,-3.7252466385227283
mp-1225213,Gd8MgAlNi2,-0.24317003291666595
mp-1190934,Gd8Rh5C12,-0.3592346166000016
mp-1224996,Gd8Sb3O8,-3.083157283421053
mp-676108,Gd8Zr7O26,-3.7636733766463424
mp-542779,GdAg,-0.29866671999999994
mp-558152,GdAg(PO3)4,-2.7213911146428567
mp-1212867,GdAg(WO4)2,-1.8176903229166672
mp-19783,GdAg2,-0.2813530233333322
mp-1184474,GdAg3,-0.19938407874999964
mp-9341,GdAgGe,-0.6432066105555552
mp-1200242,GdAgS2,-1.6592935098437511
mp-1097028,GdAgSe2,-1.193946516796875
mp-1224681,GdAgSn2,-0.4500599875000004
mp-1078585,GdAl,-0.39865726124999945
mp-19923,GdAl2,-0.5235907433333343
mp-530682,GdAl22O34,-3.4074382656578948
mp-630019,GdAl2Ni,-0.6079060762499999
mp-865411,GdAl3,-0.4285466312499997
mp-560801,GdAl3(BO3)4,-3.2542835017500003
mp-21706,GdAl3(PbO4)2,-2.992682374642858
mp-1076933,GdAl3Cu,-0.4445533080000004
mp-1212604,GdAl3Ni2,-0.6370525983333329
mp-22505,GdAl3Pd2,-0.841714788333333
mp-672244,GdAl4Ge2Au,-0.2700437375000009
mp-1095605,GdAl4Ni,-0.5512662941666662
mp-22711,GdAl7Au3,-0.5137172236363639
mp-1080612,GdAlCu,-0.4244156277777762
mp-1224679,GdAlCu4,-0.245863321666666
mp-1224663,GdAlGa,-0.5569674133333322
mp-1077056,GdAlGe,-0.6449928566666662
mp-1212574,GdAlGe2O7,-2.8721253460227274
mp-1101090,GdAlNi,-0.5750266888888879
mp-1224779,GdAlNi4,-0.5024063316666663
mp-5223,GdAlO3,-3.702378382250002
mp-20058,GdAlPd,-0.8477437333333329
mp-1212705,GdAlRh,-0.8876240358333334
mp-1224619,GdAlSi,-0.6155508050000004
mp-1018704,GdAlZn,-0.4378097399999999
mp-1224639,GdAlZnGe2,-0.4355164789999996
mp-1189241,GdAs2Au,-0.7497934337500007
mp-662714,GdAs2Pd3,-0.7440523255555545
mp-753953,GdAsO3,-2.768695454750001
mp-776200,GdAsO4,-2.819604200000002
mp-1101897,GdAsS,-1.7910172738541683
mp-635426,GdAu,-0.8195510800000001
mp-1063174,GdAu2,-0.8194153766666664
mp-1196045,GdAu3C6(N2O)3,0.1951911710247376
mp-1194925,GdB(SO4)3,-2.457576771991421
mp-1006223,GdB12,-0.2412436376923079
mp-425,GdB2,-0.4718327944444454
mp-1077270,GdB2Ir3,-0.6682761705555554
mp-19756,GdB2Rh2C,-0.5896923570138904
mp-22117,GdB2Rh3,-0.6925183555555539
mp-22335,GdB2Ru3,-0.4553331930555562
mp-1105563,GdB4,-0.5919943423333336
mp-1192291,GdB4Ru,-0.6044152669444453
mp-1071879,GdBC,0.007532833194445014
mp-1224628,GdBO3,-3.4374099340833344
mp-20967,GdBPd3,-0.5969355653333338
mp-19840,GdBRh3,-0.7524179353333338
mp-1194291,GdBe13,-0.17434323250000006
mp-1195691,GdBe2B5O11,-3.101199197872808
mp-1184468,GdBeO3,-2.8847527617500006
mp-614481,GdBi,-0.8958383024999996
mp-562809,GdBi2BrO4,-2.3273920068750007
mp-549695,GdBi2ClO4,-2.4392664622825
mp-628631,GdBi2IO4,-2.258567284375
mp-1184501,GdBi3,-0.3821189125000002
mp-1076916,GdBiPd,-0.9202756183333326
mp-620271,GdBiPt,-1.0130990183333328
mp-1064427,GdBr,-1.2155796874999991
mp-27182,GdBr3,-1.91820448125
mp-29797,GdBrO,-3.1383380204166667
mp-1206663,GdBrO2,-2.0301194331250008
mp-12765,GdC2,-0.16742334916666834
mp-567572,GdCBr,-1.0891723812500007
mp-1199796,GdCO4,-2.5159265434027764
mp-1031,GdCd,-0.3501844224999999
mp-22138,GdCd3,-0.2840973487499996
mp-1184477,GdCdAg2,-0.2812749712499993
mp-866167,GdCdAu2,-0.6540817287499996
mp-21458,GdCdCu,-0.28250862166666635
mp-865745,GdCdHg2,-0.3854169987499998
mp-623988,GdCdPd,-0.6849029172222222
mp-866034,GdCdPd2,-0.6938379437499993
mp-1184494,GdCdPt2,-0.7884629812499995
mp-1184998,GdCdRh2,-0.5261452162500007
mp-1184482,GdCl,-1.5898207841299996
mp-23265,GdCl3,-2.6811396799450007
mp-23050,GdClO,-3.474161999836668
mp-1079326,GdClO2,-2.27807532019
mp-542633,GdCo2,-0.173085156666667
mp-1077521,GdCo2B2C,0.6295733879861108
mp-1225353,GdCo2Ni2B,-0.35905221361111234
mp-21252,GdCo3B2,-0.4599265005555549
mp-13268,GdCo4B,-0.2658067936111124
mp-1077071,GdCo5,-0.06845684833333365
mp-1198946,GdCo5P3,-0.8237268418253968
mp-1193590,GdCo9Si4,-0.4820350667857137
mp-21230,GdCoB4,-0.5531812306944439
mp-20345,GdCoC,-0.2641620545833317
mp-1018146,GdCoC2,-0.3189245693750013
mp-1077133,GdCoSi,-0.7224545933333341
mp-1069379,GdCoSi3,-0.6839021860000003
mp-1212488,GdCrGeO5,-2.81796610390625
mp-19598,GdCrO3,-3.1637090062499995
mp-24916,GdCrO4,-2.7558841675
mp-614455,GdCu,-0.19602749000000053
mp-585683,GdCu(MoO4)2,-2.333363824270833
mp-541420,GdCu(WO4)2,-2.3579690145833325
mp-1077933,GdCu2,-0.2410044966666665
mp-1072041,GdCu4Au,-0.3014535733333332
mp-1025013,GdCu4Pd,-0.33453127999999904
mp-636253,GdCu5,-0.16443060499999973
mp-1224581,GdCu5Se4,-0.4557457364374997
mp-1212701,GdCu5Sn,-0.2531891278571428
mp-1224764,GdCu5Te4,-0.2565403110000005
mp-20188,GdCuAs2,-0.8258375437500005
mp-13212,GdCuGe,-0.6725395083333321
mp-1184481,GdCuO3,-2.2543482307500016
mp-1018705,GdCuPb,-0.3469921616666672
mp-510471,GdCuS2,-1.71773204515625
mp-20502,GdCuSb2,-0.6329732574999998
mp-510528,GdCuSe2,-1.233423659296875
mp-554419,GdCuSe2ClO6,-1.842631742086137
mp-505262,GdCuSeO,-2.129257446210937
mp-607182,GdCuSi,-0.6556411483333342
mp-21436,GdCuSn,-0.5942404283333337
mp-1224750,GdDy,0.018702535000000964
mp-1224739,GdDy3Ni4,-0.4376575162499998
mp-1224645,GdDyAl4,-0.5154627050000009
mp-1184659,GdDyIn2,-0.4422746341666671
mp-1184518,GdDyIr2,-0.7495015424999991
mp-1224615,GdDyNi2,-0.4244305274999993
mp-1184497,GdDyRh2,-0.8115064600000004
mp-1184527,GdDyTl2,-0.3620209900000004
mp-1184524,GdDyZn2,-0.3323718825000004
mp-975612,GdEr3,0.008386588749999646
mp-1190803,GdEr4Al15,-0.4213743500000007
mp-1224902,GdErAl6,-0.417602321875
mp-1224689,GdErCo4,-0.1685047424999991
mp-1184516,GdErHg2,-0.4683423262500002
mp-1184762,GdErIn2,-0.4540081104166661
mp-1184499,GdErIr2,-0.7765282887500007
mp-766236,GdErO3,-3.983555588
mp-1184815,GdErRh2,-0.8368349787499998
mp-1184790,GdErRu2,-0.3184733637499999
mp-1184521,GdErZn2,-0.3315412712499999
mp-972965,GdF3,-4.1293460721425
mp-20089,GdFe2,-0.07509405500000099
mp-1224629,GdFe2BiO6,-1.34013556325
mp-1205624,GdFe2SiC,-0.4872490967499985
mp-585750,GdFe3(BO3)4,-2.658638676583335
mp-1225148,GdFe4(BiO4)3,-2.0319881725
mp-1188097,GdFe4(CuO4)3,-1.7510968112499987
mp-1181137,GdFe5,-0.027338005000001903
mp-652036,GdFe5P3,-0.7192176084920637
mp-1078679,GdFeAsO,-1.7765292203125007
mp-866656,GdFeB4,-0.5750850190277769
mp-1018176,GdFeC2,-0.24318078187499914
mp-1224630,GdFeNi4,-0.2401972933333324
mp-600862,GdFeO3,-2.9132628132499985
mp-20353,GdGa,-0.6211537949999997
mp-19773,GdGa2,-0.642564016666667
mp-648086,GdGa2Co,-0.5281336662500005
mp-865386,GdGa3,-0.5365054499999999
mp-1212375,GdGa3(BO3)4,-2.7891533250833342
mp-1212456,GdGa3Os,-0.4702222403333328
mp-1104851,GdGa3Ru,-0.5682881823333322
mp-1104838,GdGa6,-0.3120970442857133
mp-651847,GdGaGe2O7,-2.601791130340909
mp-1207031,GdGaI,-1.0519762466666656
mp-18656,GdGaO3,-3.087994253249999
mp-1106136,GdGaPd2,-0.8722083662499998
mp-863249,GdGaRh2,-0.7498304825000002
mp-19918,GdGe,-0.8476696149999992
mp-1072982,GdGe2,-0.4899705316666664
mp-1102413,GdGeIr,-0.8854107216666662
mp-1103746,GdGePt,-1.1071455175
mp-1095527,GdGeRh,-0.9445639366666648
mp-1203437,GdH(SeO4)2,-1.794509037671458
mp-23989,GdH12(ClO2)3,-1.639550071169091
mp-735051,GdH18(IO3)3,-1.4030159344003226
mp-707824,GdH18C3S3(O2F)9,-1.7612647964770671
mp-24092,GdH2,-0.7552969824133331
mp-1200033,GdH2C2SNO9,-1.5889378146832822
mp-1101836,GdH2ClO2,-2.4469326254999992
mp-1197189,GdH2I3O10,-1.4594241884212504
mp-505686,GdH3,-0.6894318952150004
mp-559223,GdH6C4NO9,-1.6803629569214291
mp-605688,GdH6C6Cl3(O3F2)3,-1.6772406203996766
mp-559733,GdH7C2SO8,-1.7163957098369735
mp-567268,GdH8C10N(O2F3)4,-1.5876629498279995
mp-1190565,GdH9C5(NO4)2,-1.3112429162436001
mp-625147,GdHO2,-2.982965821530002
mp-1207092,GdHSe,-1.4858667624045836
mp-11422,GdHg,-0.5046047750000007
mp-1078842,GdHg3,-0.3674899974999999
mp-1184743,GdHo3,0.024202211250000442
mp-1224644,GdHoAl6,-0.4171372356249998
mp-1184535,GdHoIr2,-0.7604916387500005
mp-1184533,GdHoTl2,-0.3562398212500009
mp-1212616,GdI3O11,-1.0083437742500003
mp-752520,GdIO,-2.449854782916667
mp-21005,GdIn,-0.4803297416666652
mp-1212862,GdIn2Cl5,-1.930465298183333
mp-1213603,GdIn2Cu9,-0.14562160263888893
mp-1191355,GdIn2Ni9,-0.21293889847222167
mp-20444,GdIn2Rh,-0.6085075941666664
mp-20258,GdIn3,-0.4194653225000007
mp-1206181,GdIn5Rh,-0.4171042838095239
mp-1080496,GdInAu,-0.7350272688888881
mp-1065288,GdInAu2,-0.6402495383333324
mp-614489,GdInCu2,-0.2956451858333331
mp-1077293,GdInCu4,-0.2600120555555563
mp-1206797,GdInNi4,-0.36774552555555456
mp-1212640,GdInO3,-2.9606977214166665
mp-20224,GdInPd,-0.8027593477777784
mp-624070,GdInPd2,-0.7763073983333335
mp-582029,GdInPt,-0.7129631777777772
mp-22656,GdInPt2,-0.9372701045833338
mp-1072097,GdInPt4,-0.8121631138888894
mp-623043,GdInRh,-0.7353097122222212
mp-510400,GdIr3,-0.3424583949999977
mp-1184543,GdLuAg2,-0.3145760675
mp-1224606,GdLuAl4,-0.4918717366666671
mp-1184534,GdLuCd2,-0.3010341775000001
mp-1184522,GdLuCu2,-0.2377620124999993
mp-1184485,GdLuIr2,-0.8050025949999995
mp-756424,GdLuO3,-3.96528985425
mp-1185598,GdLuRh2,-0.8657859975000015
mp-1184510,GdLuRu2,-0.3544754525000009
mp-2636,GdMg,-0.0964517900000006
mp-556905,GdMg(BO2)5,-3.1090876232843128
mp-21049,GdMg2,-0.08217195499999974
mp-20149,GdMg2Ag,-0.07955295249999939
mp-567249,GdMg2Ni9,-0.2726987341666671
mp-20534,GdMg3,-0.07619942249999934
mp-1224816,GdMg3Ni8,-0.29029847166666656
mp-1184490,GdMgAg2,-0.28787341250000065
mp-580154,GdMgAu,-0.6704776255555551
mp-1184513,GdMgAu2,-0.7523344124999998
mp-865590,GdMgCd2,-0.3069156099999999
mp-574004,GdMgGa,-0.483174893333332
mp-1184495,GdMgHg2,-0.4511184625000002
mp-1101056,GdMgIn,-0.3882557722222215
mp-977381,GdMgNi4,-0.3752672733333332
mp-20332,GdMgPd,-0.6733343833333328
mp-22028,GdMgPt,-0.9368973444444416
mp-866059,GdMgRh2,-0.6598641349999994
mp-1206951,GdMgTl,-0.3292995161111105
mp-865883,GdMgZn2,-0.3244886300000003
mp-639892,GdMn12,0.01772216230769284
mp-1076939,GdMn2,0.2260248600000002
mp-1238790,GdMn2O4,-2.606335503131427
mp-703682,GdMn2O5,-2.6306577485212497
mp-976591,GdMn3,0.3801109899999986
mp-1181730,GdMn4(CuO4)3,-1.8494758009419998
mp-505546,GdMnB4,-0.618441869027779
mp-613677,GdMnGe,-0.2927402366666669
mp-1191402,GdMnGe2O7,-2.5472460913372728
mp-20553,GdMnSi,-0.559418258333333
mp-1193134,GdMoBrO4,-2.5605542042857152
mp-1106263,GdMoC2,-0.2012898262500009
mp-565335,GdMoClO4,-2.7244707418942857
mp-566113,GdMoO4F,-3.02687335981286
mp-1212636,GdMoO5,-2.5622367901785714
mp-1181339,GdNO5,-1.6308658948042856
mp-1212605,GdNb5Ag2O15,-2.74591578798913
mp-19721,GdNbO4,-3.5439535458333347
mp-542632,GdNi,-0.3982233475000001
mp-541466,GdNi(BO2)5,-2.831821223431373
mp-543019,GdNi2,-0.4039524683333345
mp-20728,GdNi2B2C,-0.4920033336805538
mp-1071438,GdNi4Au,-0.35950938833333385
mp-1102948,GdNi4B,-0.4660576677777778
mp-21305,GdNi5,-0.31208523666666704
mp-1206977,GdNiAs,-1.049325865
mp-865177,GdNiB4,-0.5669542377777775
mp-567422,GdNiBi,-0.6624307816666656
mp-1065668,GdNiC2,-0.3055991693750002
mp-1079303,GdNiGe3,-0.5826051309999997
mp-1212834,GdNiPb,-0.4008405383333328
mp-569197,GdNiSb,-0.8813785383333321
mp-1184544,GdNp3,0.7137404584375009
mp-7870,GdO,-3.035984585625
mp-1206505,GdO3,-1.7744313959375004
mp-753721,GdOF,-4.207433577480002
mp-510184,GdOs2,-0.2586816750000007
mp-510401,GdP,-1.5880949460714289
mp-541218,GdP2H9O10,-2.005824941107531
mp-601302,GdP2H9O11,-2.085624094374597
mp-560412,GdP4H4NO12,-2.4268814702468835
mp-680742,GdP5,-0.5330268117857138
mp-558487,GdP5O14,-2.8312754917857146
mp-556657,GdPH5CO7,-2.0574942411828565
mp-1103324,GdPO4,-3.471811898690477
mp-1077329,GdPPd,-1.2519472273809529
mp-16340,GdPPt,-1.3511933440476191
mp-1191365,GdPS,-1.7895148920684534
mp-1196177,GdPS4,-1.4888453911904758
mp-37014,GdPaO4,-4.1605417816666685
mp-1184525,GdPaRu2,-0.34142295750000073
mp-1184505,GdPaTc2,-0.08667433249999945
mp-1076927,GdPb3,-0.3251223774999996
mp-11427,GdPd,-0.8706429075000006
mp-21427,GdPd3,-0.8511235024999992
mp-11428,GdPt,-1.2237823250000002
mp-1422,GdPt2,-1.0919952483333308
mp-20272,GdPt3,-0.9523745950000002
mp-17500,GdPtF7,-2.908587828981111
mp-1102209,GdRe2,-0.11999378750000035
mp-1191130,GdReB4,-0.5658276361111115
mp-1742,GdRh,-0.8005486749999999
mp-20084,GdRh2,-0.7184219133333348
mp-1191219,GdRh3,-0.5492605075000002
mp-20182,GdRh3C,-0.4620467857500018
mp-571283,GdRh5,-0.2831899000000012
mp-1184503,GdRhO3,-2.081278852750001
mp-646926,GdRu2,-0.2436565366666675
mp-582826,GdRuC2,-0.18555380687499934
mp-510402,GdS,-2.3889382270312502
mp-1095479,GdS2,-2.1763706810416683
mp-1212521,GdSBr,-2.2216411588541667
mp-558122,GdSClO4,-2.726907227474643
mp-3799,GdSF,-3.353900320084167
mp-556135,GdSI,-2.0385914880208333
mp-16801,GdSO4F,-3.076768127893214
mp-1203539,GdSbMo2O9,-2.430995593942308
mp-11839,GdSbPt,-1.1870736816666654
mp-4796,GdScGe,-0.7429424749999995
mp-5690,GdScO3,-3.9321179747499984
mp-22480,GdScSi,-0.6596799133333325
mp-510404,GdSe,-1.8417253742968749
mp-1213513,GdSe2NO11,-0.743846257887833
mp-556551,GdSeClO3,-2.463297864267292
mp-601371,GdSi,-0.8022652937500006
mp-21192,GdSi2,-0.5911478383333323
mp-1079677,GdSi2Ni,-0.8245364487499991
mp-622508,GdSi2Rh3,-1.0222703866666667
mp-1069477,GdSi3Ir,-0.8047670800000006
mp-1190689,GdSi3Ni8,-0.5645817616666674
mp-1079690,GdSiAg,-0.5733681655555564
mp-1184484,GdSiO3,-2.8938239227500007
mp-1224635,GdSiO4,-3.154407040000001
mp-1224641,GdSiPd,-0.8979012466666692
mp-1071675,GdSiPt,-1.1590836050000004
mp-1189670,GdSiPt2,-1.134750898750001
mp-19875,GdSiRu,-0.8167644766666674
mp-1071567,GdSn2,-0.6064533883333342
mp-19919,GdSn3,-0.46217348375
mp-20514,GdSnAu,-0.8362517183333331
mp-15059,GdSnF7,-3.5593307845366664
mp-1206580,GdSnGe,-0.6231048150000001
mp-1103503,GdSnPd,-0.9096464208333342
mp-1184508,GdSnPd2,-0.8294175587500003
mp-1079739,GdSnPt,-1.0755958338888894
mp-1079214,GdSnPt2,-0.9819366175000006
mp-866089,GdSnRh2,-0.7340189862499997
mp-770998,GdTa3O9,-3.526109070865385
mp-1224653,GdTa4O12,-3.332801967941177
mp-770124,GdTa7O19,-3.4367627479166667
mp-4875,GdTaO4,-3.7099182425
mp-1076964,GdTe2,-1.2113523000000004
mp-550437,GdTe2ClO5,-2.0722124255011116
mp-1184733,GdTh3,0.07008091750000034
mp-1224571,GdThN2,-1.7648708261899984
mp-1184491,GdThO3,-3.144886932749998
mp-1184613,GdThRu2,-0.3704262549999999
mp-695048,GdTi2CdO6F,-3.1909916220021226
mp-39684,GdTiCdSbO7,-2.8028510377651528
mp-1212518,GdTiClO3,-3.518372797279445
mp-20869,GdTiGe,-0.684306370555556
mp-1224654,GdTiNbBi2O9,-2.874404022708333
mp-510278,GdTiO3,-3.629136451083333
mp-19966,GdTl,-0.3801859225000008
mp-1212617,GdTl(MoO4)2,-2.431125356874999
mp-1212540,GdTl(WO4)2,-2.4899273720833333
mp-20503,GdTl3,-0.24380775624999984
mp-30692,GdTlPd,-0.6551799050000002
mp-557655,GdTlS2,-1.8193067457812508
mp-569393,GdTlSe2,-1.3954952105468754
mp-1065609,GdTlTe2,-1.0716350537500006
mp-1018708,GdTlZn,-0.3172111733333338
mp-1224982,GdTm(FeNi4)2,-0.2419911308333328
mp-1184520,GdTmCd2,-0.3080292325
mp-1184532,GdTmIr2,-0.7890307300000003
mp-756030,GdTmO3,-3.938007313749999
mp-1184489,GdTmRh2,-0.8490127325000003
mp-1184801,GdU3,0.538636219999999
mp-1224554,GdUAl4,-0.2470291133333333
mp-1224527,GdUN2,-1.6309473386899995
mp-1203163,GdV(SeO4)2,-2.177906051223959
mp-1224690,GdV2Fe10N,-0.18136690017000084
mp-1191160,GdVB4,-0.6735422206944435
mp-541177,GdVO3,-3.254659493750002
mp-25140,GdVO4,-3.186991337499999
mp-1192808,GdWBrO4,-2.57265634107143
mp-1212572,GdWC2,-0.2368441631249993
mp-568740,GdWClO4,-2.7336554940371416
mp-1212606,GdWO5,-2.593398295892857
mp-1224503,GdY(CoB)4,-0.5452922536666662
mp-1224655,GdY(FeO3)2,-2.9228886362500006
mp-1224627,GdY(WO4)3,-2.7280658635294124
mp-1184538,GdY3,0.02868439749999929
mp-1224573,GdY3(FeO3)4,-2.6077163907500007
mp-1224509,GdY3V4O16,-3.2001314037499995
mp-1224416,GdYAl4,-0.5230047249999998
mp-1224937,GdYCo4,-0.14094122333333325
mp-1184512,GdYCu2,-0.2130899924999996
mp-1224747,GdYCu4,-0.2479861499999992
mp-1224599,GdYH4,-0.7696468474133341
mp-1184526,GdYHg2,-0.4876438375000003
mp-1184732,GdYIr2,-0.7330452899999997
mp-754480,GdYO2,-3.216865626875
mp-1184458,GdYRh2,-0.7959590824999996
mp-1184716,GdYRu2,-0.2655279050000008
mp-1224479,GdYScSbO7,-3.3928438180681812
mp-1224411,GdYV2O8,-3.195327981666665
mp-1076988,GdZn2,-0.3705977149999988
mp-1078542,GdZnAsO,-1.9826496915624992
mp-1077244,GdZnGa,-0.5472030233333337
mp-13159,GdZnGe,-0.6641183824999999
mp-545506,GdZnPO,-2.032013493348214
mp-1080178,GdZnPd,-0.7203003638888887
mp-1103440,GdZnRh,-0.7025836866666673
mp-1224549,GdZnSi,-0.6180362183333324
mp-1184763,GdZr,0.12809197500000025
mp-530695,GdZr3F15,-4.123140419360527
mp-1213641,GdZr6(PO4)9,-3.2561874635439567
mp-1184599,GdZrO3,-3.2862244787500003
mp-1184742,GdZrRu2,-0.4214927724999989
mp-1071459,GdZrSb,-0.8213204799999995
mp-23352,Ge(Bi3O5)4,-1.7088566790909103
mp-27948,Ge(BiTe2)2,-0.18595979928571435
mp-27218,Ge(BrF5)2,-1.8295855201461533
mp-1197268,Ge(C6F5)4,-0.3461250928622222
mp-1079657,Ge(NF3)2,-0.5090606029888884
mp-1181280,Ge(PO2)3,-1.8306953598928573
mp-560370,Ge(PbS2)2,-0.8489900505357149
mp-28291,Ge(SF6)2,-2.361318843827
mp-1224378,Ge(SbTe)4,-0.0800128649999997
mp-1224350,Ge(SbTe2)2,-0.11148042785714296
mp-1205339,Ge(SeO3)2,-1.5194434182986118
mp-14790,Ge(Te2As)2,-0.028313786428571217
mp-554142,Ge(TeO3)2,-1.7121233275000007
mp-1224632,Ge(TePd4)2,-0.35334903431818143
mp-694895,Ge(WO3)6,-2.096811532566667
mp-756104,Ge11N11O5,-0.6416083513862952
mp-1212552,Ge12As11I4,-0.0395451425925928
mp-1120824,Ge13Sb13Te32,-0.056261090172413736
mp-1212561,Ge19(AsBr)4,-0.1569490809259264
mp-27626,Ge19(AsI)4,-0.08811586685185196
mp-27625,Ge19(PBr)4,-0.1658513060582015
mp-1212555,Ge19(PCl)4,-0.2895987820967194
mp-23420,Ge19(PI)4,-0.08885591013227437
mp-1212667,Ge19(SbBr)4,-0.11471809685185234
mp-1212622,Ge19(SbI)4,-0.04805631777777766
mp-767690,Ge2(WO3)9,-2.073359202467106
mp-1203373,Ge22Rh17,-0.4816980357692303
mp-569901,Ge23Mo13,-0.12203455930555485
mp-768524,Ge2As2O7,-1.8421536939772736
mp-1206551,Ge2Bi2Te5,-0.15708490999999944
mp-1042896,Ge2BiO6,-1.8407871969444445
mp-1181355,Ge2Br7N3,0.8064643498216668
mp-541145,Ge2C2(SF2)3,-1.4375157084098082
mp-541146,Ge2C2(SeF2)3,-1.2557355419554803
mp-13688,Ge2Mo,-0.16078249999999986
mp-1043238,Ge2MoO6,-2.0500566436111107
mp-4187,Ge2N2O,-0.8327779032019991
mp-982048,Ge2O3,-1.5029966587499992
mp-1224906,Ge2Pb5SO12,-1.8930563127031248
mp-1543,Ge2Pt,-0.3429716549999995
mp-21673,Ge2Pt3,-0.4359790077499994
mp-1201091,Ge2RuC4(Cl3O2)2,-1.18987848350353
mp-540792,Ge2S3Br2,-0.7291963863839293
mp-27928,Ge2S3I2,-0.6077782778124998
mp-1184711,Ge2Sb2O5,-1.059854118472222
mp-1042897,Ge2SbO6,-1.915120423611112
mp-1224376,Ge2SeS,-0.3957857806640624
mp-14791,Ge2Te5As2,-0.03418193333333303
mp-1224336,Ge2TeSe,-0.13433767964843746
mp-1101810,Ge2W,0.037989474166667016
mp-1043268,Ge2WO6,-2.0171431925
mp-23560,Ge3(BiO3)4,-1.9447985944736843
mp-540687,Ge3(BiTe3)2,-0.13285437772727252
mvc-4408,Ge3(MoO6)2,-1.9272242464705889
mp-1201722,Ge3(SbO3)4,-1.9489440384210528
mp-1212511,Ge3(SbTe3)2,-0.08748716772727311
mp-541312,Ge3(Te3As)2,-0.051538218636363424
mvc-4222,Ge3(TeO6)2,-1.6716079214705881
mvc-4401,Ge3(WO6)2,-2.0353964119117647