task_id,composition,formation_energy_per_atom
mp-1203289,CsGeSbO5,-2.1055973513227366
mp-1057286,CsH,-0.2097473574134483
mp-696987,CsH(CO2)2,-1.6660527868533617
mp-24110,CsH18RuN6(ClO2)4,-0.7882845011496545
mp-707209,CsH24Rh(SO10)2,-1.5309362269523312
mp-707854,CsH24Ru(SO10)2,-1.525518666535665
mp-1213652,CsH2CN5,-0.4016173871218764
mp-696986,CsH2CO3,-1.6735249172781284
mp-1196282,CsH2F3,-2.3654482499194827
mp-1202437,CsH2SNO3,-1.5524589338924253
mp-1006815,CsH3,0.6780391469832763
mp-1228884,CsH3(SeO3)2,-1.4531279334795333
mp-1192000,CsH3AuN,-0.4365714594911487
mp-1194650,CsH3CN2O,-0.8936566911658614
mp-626417,CsH3O2,-1.5295994657611487
mp-1198073,CsH4NF2,-1.5925430853683622
mp-1184037,CsH5N2,-0.5078852195708619
mp-541005,CsH5O3,-1.4941377515896543
mp-773494,CsH5S2(NO3)2,-1.4700252102932438
mp-1203517,CsH6C2S2NO4,-1.0001177917769937
mp-721753,CsH7(C2O5)2,-1.5169578915475852
mp-28204,CsH7O4,-1.4756579153372418
mp-31476,CsHC2,0.2907491335849433
mp-542704,CsHCO2,-1.6030884252153792
mp-1238754,CsHCO3,-1.9086579774711487
mp-24668,CsHF2,-2.535834866801724
mp-699173,CsHIF7,-2.2582351953156903
mp-625136,CsHO,-1.551028898692299
mp-1204209,CsHPt2(SO4)4,-1.7615004192115375
mp-1183955,CsHS,-1.0396467771297992
mp-643586,CsHS2(O3F)2,-2.1535179194026584
mp-1018678,CsHSO3,-1.8996598804398992
mp-1192419,CsHSO4,-2.092858184484199
mp-24141,CsHSeO4,-1.5466140229886634
mp-1190089,CsHf2Br9,-1.5335369655172415
mp-1213477,CsHf6CCl15,-2.175688136906821
mp-1181585,CsHfCu3Se4,-0.556106975064655
mp-1098087,CsHfMg14O15,-2.7551761170953832
mp-1038693,CsHfMg30O31,-2.8458106499993163
mp-1016377,CsHfMg6,0.35957599109913785
mp-1033715,CsHfMg6O7,-2.5920355986637933
mp-1080797,CsHg,-0.2175889806034484
mp-540849,CsHg(NO2)3,-0.1979481137133538
mp-574379,CsHg2,-0.2548847804022987
mp-619510,CsHg2Br5,-0.8301407595258623
mp-1185577,CsHg3,-0.2314546928017241
mp-568628,CsHg5Cl11,-1.1604071477686413
mp-1228835,CsHgBr2Cl,-1.1650177438933795
mp-1194175,CsHgBr3,-1.0320148665747126
mp-1228820,CsHgBrCl2,-1.3360436585453794
mp-29845,CsHgCl3,-1.5434629843084906
mp-561947,CsHgF3,-2.26875724695538
mp-1225936,CsHgSbSe3,-0.519303173664691
mp-1183937,CsHo,0.7609960593965517
mp-1213347,CsHo(MoO4)2,-2.619752072183907
mp-1213418,CsHo(NbBr3)6,-1.1465801017771884
mp-1213191,CsHo(WO4)2,-2.6501612055172417
mp-1190472,CsHo2Ag3Te5,-0.8245207587460812
mp-1213367,CsHo2Cl7,-2.6817389574026897
mp-672258,CsHo2Cu3Se5,-1.1161970726523316
mp-1183916,CsHo3,0.7316680796982764
mp-18505,CsHo3Te5,-1.4084056245785443
mp-12490,CsHoCdTe3,-1.079725846867816
mp-13259,CsHoCoSe3,-1.1677644011646915
mp-1213649,CsHoMnSe3,-1.3294332136646905
mp-754154,CsHoO2,-2.9919913421767244
mp-1078726,CsHoS2,-2.153667267332975
mp-1193331,CsHoSiS4,-1.815617533565272
mp-505712,CsHoZnSe3,-1.4156202261646909
mp-579556,CsHoZnTe3,-1.09314999020115
mp-27662,CsI2Br,-0.9266753809267241
mp-22876,CsI3,-0.8333170796767242
mp-28578,CsI3F16,-2.1396162867623447
mp-571011,CsI4,-0.6755277222413791
mp-22990,CsICl2,-1.4050714256817245
mp-28295,CsIO3,-1.3885394579913792
mp-23489,CsIO4,-1.1844153247844822
mp-560851,CsIOF4,-2.1876987756738417
mp-1232361,CsIn(Cu3O4)2,-1.1162575837212645
mp-1213321,CsIn(MoO4)2,-2.1395640630866857
mp-16464,CsIn(PO3)4,-2.6120039113302767
mp-542339,CsIn3,-0.12119648238505812
mp-1229308,CsIn3H6(Se3O10)2,-1.5184427978330393
mp-559213,CsIn3O5,-1.9384102430507657
mp-22007,CsIn5S8,-1.0421770575266829
mp-1225942,CsInAgF6,-2.4515293868533585
mp-1112338,CsInBr3,-1.2342503929080462
mp-1112961,CsInCl3,-1.8064863518640464
mp-1226046,CsInCu(PO3)6,-2.4931361798110143
mp-1225976,CsInCuF6,-2.5838804440755805
mp-1112960,CsInF3,-2.794837260622046
mp-1213442,CsInH2(SeO4)2,-1.2562530520691229
mp-1194853,CsInHgS3,-1.0191517296629555
mp-607987,CsInI4,-0.9112379374233716
mp-755004,CsInO2,-1.7480861042600573
mp-1200734,CsInP2O7,-2.6250563338705395
mp-1225902,CsK,0.05266680289655157
mp-554015,CsK(ClO4)2,-1.2085955242272413
mp-1225963,CsK(Fe2S3)2,-1.019264626548492
mp-30577,CsK2,0.018195001764367724
mp-1112328,CsK2AlBr6,-1.4143488302206897
mp-1112327,CsK2AlCl6,-2.06698913617669
mp-1112319,CsK2AlF6,-3.36386228493469
mp-1112057,CsK2AlI6,-1.0289310372206897
mp-1183938,CsK2As,-0.25511462430172416
mp-1112325,CsK2AsBr6,-1.1426514867206898
mp-1112054,CsK2AsCl6,-1.7077240736766899
mp-1112326,CsK2AsF6,-2.71206373743469
mp-1112322,CsK2AuF6,-2.21874335993469
mp-557807,CsK2AuO2,-1.2701871157844828
mp-863759,CsK2Bi,-0.3438965368017244
mp-571371,CsK2BiCl6,-1.98091868517669
mp-554962,CsK2CoO2,-1.2801884641178158
mp-1190639,CsK2Fe3P4ClO14,-2.526179015261532
mp-1112321,CsK2GaCl6,-1.8801635951766893
mp-1112316,CsK2GaF6,-2.999482316934692
mp-573324,CsK2Ho(PO4)2,-3.006669392963758
mp-1112318,CsK2InCl6,-1.8994735045100228
mp-1112317,CsK2InF6,-2.9141778682680237
mp-1112315,CsK2IrF6,-2.459427204934689
mp-1213137,CsK2LaV2O8,-2.731593552300493
mp-1195628,CsK2Mn3P4ClO14,-2.6150378193767336
mp-1111974,CsK2NbF6,-2.8918855919346886
mp-8959,CsK2PdF5,-2.544344082017432
mp-1112304,CsK2PdF6,-2.4098109749346897
mp-1078821,CsK2Pt,0.15459972069827588
mp-1185542,CsK2Rb,0.043095041862068806
mp-1112313,CsK2RuF6,-2.53546508643469
mp-581024,CsK2Sb,-0.3769298018017242
mp-1112055,CsK2SbCl6,-1.7851111556766894
mp-1112270,CsK2SbF6,-2.792774617434689
mp-8564,CsK2Sc(PO4)2,-2.9623009876066155
mp-1112309,CsK2ScCl6,-2.3082266281766897
mp-1110639,CsK2ScF6,-3.4651705209346892
mp-1112268,CsK2TaF6,-2.873180678934689
mp-1112052,CsK2TiF6,-3.2234729396013564
mp-1111971,CsK2TlF6,-2.60519098743469
mp-1112240,CsK2YF6,-3.4778255419346897
mp-10767,CsK2Yb(PO4)2,-2.8113983418923287
mp-1185554,CsK3,0.034770934948275656
mp-14429,CsK4GaO4,-1.7237766310706897
mp-562074,CsK4TlO4,-1.4079550349456895
mp-654335,CsK5Ru2O9,-1.6927884652915826
mp-641018,CsK5Zn4Sn5S17,-1.175157155008419
mp-1192978,CsK7Rb5,0.03511610354376648
mp-1095752,CsKAu2,0.11518502644827587
mp-1002083,CsKICl,-1.8336618418667243
mp-1035964,CsKMg14O15,-2.5919881278373187
mp-1040265,CsKMg30O31,-2.8242834600469338
mp-1098049,CsKMg6,0.2649901332241378
mp-699557,CsKMo4(P3O13)2,-2.516437943672737
mp-1093922,CsKNa2,0.5460829739482757
mp-17718,CsKNa2Li12(SiO4)4,-2.6474768020613024
mp-720245,CsKNaLi13(SiO4)4,-2.552397771227969
mp-984357,CsKO3,-0.4298040935913797
mp-645189,CsKPt6(S3O14)2,-1.6579209993709976
mp-1183953,CsKRb2,0.049699066275861965
mp-559375,CsKTeH6SO10,-1.7495937876244692
mp-1213422,CsKZr6BCl15,-2.1832168958238984
mp-1183956,CsLa,0.5658601543965514
mp-1213151,CsLa(MoO4)2,-2.5923716934339063
mp-1213403,CsLa(NbBr3)6,-1.1693420881233425
mp-559234,CsLa(PO3)4,-2.956833159154352
mp-560260,CsLa(SO4)2,-2.7089843147359907
mp-1205125,CsLa(SO6)2,-1.3788404718332443
mp-1213395,CsLa(TaBr3)6,-1.1548550002387263
mp-1213173,CsLa(WO4)2,-2.6612190163505742
mp-1213600,CsLa2Br7,-2.0240325026206896
mp-505815,CsLa2CuSe4,-1.5855864038227367
mp-1183949,CsLa3,0.5380853284482758
mp-771235,CsLa3O5,-3.4197293713841
mp-1213677,CsLa6FeI10,-1.2838554471503834
mp-12491,CsLaCdTe3,-1.1632682660344826
mp-1181615,CsLaCl4O3,-1.3293148147774332
mp-1213618,CsLaH4(SO4)2,-1.4184267288319932
mp-1039992,CsLaMg30O32,-2.8960399938469825
mp-1021161,CsLaMg6,0.2183248979741379
mp-553248,CsLaNb2O7,-3.2101383404506274
mp-1178449,CsLaO2,-2.9281196996767243
mp-1183918,CsLaO3,-2.2325136039913787
mp-561586,CsLaS2,-2.204531706082975
mp-1213020,CsLaW2,2.329602215948276
mp-510460,CsLaZnTe3,-1.1551508368678158
mp-1213380,CsLaZr6CCl18,-2.2927869605050706
mp-569543,CsLaZr6FeCl18,-2.2140850925884026
mp-5990,CsLi(B3O5)2,-2.8705060977059387
mp-642740,CsLi(H2N)2,-0.5955975948475286
mp-560667,CsLi(PO3)2,-2.7174821519242607
mp-643288,CsLi2(H2N)3,-0.12132400625557455
mp-697181,CsLi2(HO)3,-1.7554259839796549
mp-559238,CsLi2BS3,-1.3654288464372948
mp-606680,CsLi2Br3,-1.6318411277011495
mp-1213008,CsLi2C,1.3140647812607755
mp-1190687,CsLi2Cl3,-2.1701553055811496
mp-606604,CsLi2F3,-3.018516077462816
mp-1197930,CsLi2Gd4(BO3)5,-3.2444970837329703
mp-569055,CsLi2I3,-1.3226025243678163
mp-580554,CsLi3Br4,-1.5771961539008617
mp-571666,CsLi3Cl4,-2.131752153655862
mp-555439,CsLi3F4,-3.0357855594958623
mp-1184020,CsLi3I4,-1.302854595775862
mp-1019716,CsLi4(BO2)5,-2.7374609756020107
mp-555082,CsLi5(BO3)2,-2.510642393717159
mp-1195536,CsLi5Mn(P2O7)2,-2.7182239406295325
mp-1178400,CsLi7(NiO3)2,-1.6171967802316818
mp-18704,CsLiBeF4,-3.3718468344238417
mp-23057,CsLiBr2,-1.677002187801724
mp-1188344,CsLiCl2,-2.193300883806724
mp-615884,CsLiCrO4,-2.115724138386699
mp-7594,CsLiF2,-3.0239612483967244
mp-699459,CsLiH4S2(NO3)2,-1.5930541428794935
mp-755891,CsLiH4SO5,-1.8083027592499488
mp-1190087,CsLiI2,-1.3558790596767245
mp-1002080,CsLiICl,-1.561241979866724
mp-1098505,CsLiMg30O31,-2.8468566003961406
mp-1099243,CsLiMg6O7,-2.34675567033046
mp-1178398,CsLiMnP3HO10,-2.5179804485126747
mp-1225894,CsLiMnS2,-1.31932816686638
mp-561689,CsLiMoO4,-2.3226498058867
mp-1206673,CsLiN2,1.0478278997582762
mp-1178393,CsLiO,-1.5750642233189651
mp-6726,CsLiSO4,-2.4128609736099143
mp-1204089,CsLiU(PS4)2,-1.2461892425378926
mp-1178391,CsLiWO4,-2.326437063029556
mp-1225887,CsLiZnS2,-1.3955314138663797
mp-1213076,CsLu(MoO4)2,-2.6579035405172413
mp-1213352,CsLu(NbBr3)6,-1.1400219627387265
mp-570921,CsLu(NbCl3)6,-1.8952069815341117
mp-1213389,CsLu(TaBr3)6,-1.1250745125464188
mp-1213268,CsLu2Cl7,-2.65000140265269
mp-581696,CsLu2Cu3Se5,-1.091094228561422
mp-1213386,CsLu3F10,-4.339672159329064
mp-1226963,CsLu4F13,-4.342808297037606
mp-12492,CsLuCdTe3,-1.0482681685344826
mp-554854,CsLuP2O7,-3.1880201899311467
mp-1087532,CsLuS2,-2.135825492332975
mp-1191129,CsMg(BrO2)3,-0.8371565403369907
mp-1229321,CsMg(PO3)3,-2.8279854087894387
mp-695172,CsMg12Al25Si29O108,-3.3241919640068973
mp-1036504,CsMg14AlO16,-2.746835664881465
mp-1099260,CsMg14BO15,-2.553232429729792
mp-1099218,CsMg14BO16,-2.6716098757147986
mp-1099222,CsMg14CrO16,-2.673257077381465
mp-1099214,CsMg14GaO16,-2.6673251089439654
mp-1036562,CsMg14MnO16,-2.6754730830364646
mp-1099321,CsMg14Si,0.20462624086206915
mp-1099219,CsMg14SiO16,-2.6040732523814647
mp-1099220,CsMg14WO16,-2.5769176642564657
mp-1016231,CsMg3,0.26384628344827576
mp-1038225,CsMg30AlO32,-2.9328020135344826
mp-1098613,CsMg30BO31,-2.8403475966924367
mp-1039625,CsMg30BO32,-2.8860853806699
mp-1039576,CsMg30BiO32,-2.8207515265813576
mp-1039740,CsMg30CrO32,-2.8870881841594835
mp-1037605,CsMg30FeO32,-2.8699285688469827
mp-1038710,CsMg30GaO32,-2.8892017585344822
mp-1038041,CsMg30MnO32,-2.8804758568307323
mp-1038732,CsMg30SbO32,-2.8254406558001075
mp-1039950,CsMg30SiO32,-2.878693723378232
mp-1098350,CsMg30TiO32,-2.9161883420761496
mp-1098527,CsMg30WO32,-2.842646444003232
mp-695133,CsMg4Al9(SiO4)9,-3.3199415973085915
mp-1099234,CsMg6AlO8,-2.258020077887932
mp-1016304,CsMg6B,0.4171090833908047
mp-1098281,CsMg6BO7,-2.5251275387749046
mp-1099263,CsMg6BO8,-2.2988969245545974
mp-1100174,CsMg6Bi,0.2054193648491381
mp-1098071,CsMg6C,0.3721546818803878
mp-1099227,CsMg6CO8,-1.7622407684348058
mp-1099306,CsMg6Co,0.32572634047413795
mp-1099262,CsMg6CrO8,-2.2499266691379307
mp-1099285,CsMg6Cu,0.3521830254741383
mp-1100173,CsMg6Fe,0.4097840717241379
mp-1016572,CsMg6Ga,0.14584336172413792
mp-1099261,CsMg6GaO8,-2.1978601516379306
mp-1099119,CsMg6Mn,0.4524314667241383
mp-1017097,CsMg6Mo,0.44989765297413786
mp-1017109,CsMg6Nb,0.4069920617241385
mp-1016372,CsMg6Sb,0.09773185484913792
mp-1021157,CsMg6Si,0.16831854047413808
mp-1021419,CsMg6Ti,0.3154938771408047
mp-1098079,CsMg6V,0.47901404422413796
mp-1100169,CsMg6W,0.6990427354741384
mp-1099223,CsMg6WO8,-2.072871357262931
mp-1022712,CsMg6Zn,0.1809011848491382
mp-1225922,CsMgAlF6,-3.759140526482988
mp-1213043,CsMgAs(H3O2)2,0.08832094246716228
mp-1193046,CsMgAs(H6O5)2,-1.671327815485875
mp-1019721,CsMgBO3,-2.7656553775622608
mp-29750,CsMgBr3,-1.6651814062413792
mp-23004,CsMgCl3,-2.3096404791973795
mp-1225938,CsMgCoF6,-3.0154687131496565
mp-8401,CsMgF3,-3.4423345169553787
mp-1225928,CsMgFeF6,-3.2604211848163214
mp-1225927,CsMgGaF6,-3.3488286548163213
mp-721171,CsMgH12(ClO2)3,-1.5960089094316046
mp-571020,CsMgH3,-0.3147120347467123
mp-29751,CsMgI3,-1.272227928241379
mp-1225951,CsMgInF6,-3.2753384146311366
mp-1225959,CsMgNiF6,-2.8095622792607657
mp-984756,CsMgO3,-1.3428299559913797
mp-761178,CsMgP(H6O5)2,-1.82335592857159
mp-18329,CsMgPO4,-2.9278644858356784
mp-863692,CsMn(CN)3,-0.2897583599496114
mp-1190594,CsMn(OF2)2,-1.7502238868033615
mp-566977,CsMn(PO3)4,-2.5922450819854626
mp-1226083,CsMn(PO3)6,-2.4052540877893867
mp-1226351,CsMn2(PO3)6,-2.617937947166076
mp-1029801,CsMn2N3,-0.37776804618281545
mp-566592,CsMn2V2ClO7,-2.3175088430874533
mp-567499,CsMn4Cl9,-1.6122834875390637
mp-505016,CsMnAs,-0.2428012037356317
mp-1077053,CsMnBi,0.036652476264368516
mp-23048,CsMnBr3,-1.2550578232413785
mp-1213628,CsMnBr3O2,-0.9288140149524132
mp-23336,CsMnCl3,-1.848364976530712
mp-1194554,CsMnCl3O2,-1.3650816699209858
mp-505752,CsMnCr(CN)6,-0.056179270865792816
mp-1228863,CsMnCrF6,-3.0945599515896545
mp-1228881,CsMnCuF6,-2.571605004367433
mp-558702,CsMnF3,-3.0120390734807128
mp-617871,CsMnF4,-2.9622522657378165
mp-1228982,CsMnFeF6,-2.9665006315896547
mp-1204881,CsMnGa2P3(H2O7)2,-2.3239846476230186
mp-744823,CsMnH24(SO10)2,-1.5772296061389988
mp-762550,CsMnH4(OF2)2,-2.177714451575574
mp-1202031,CsMnH4Cl3O2,-1.6516765187660816
mp-540609,CsMnI3,-0.9116754982413788
mp-1204512,CsMnInTe3,-0.5228673040900382
mp-699398,CsMnMo(OF)3,-2.5191288616096554
mp-1204958,CsMnN9,-0.1444603566024447
mp-18994,CsMnO4,-1.5108935953611493
mp-1077378,CsMnP,-0.3799042961165841
mp-25555,CsMnP3HO10,-2.5122178577947167
mp-1207359,CsMnSe2,-0.6778510583485993
mp-1207341,CsMnTe2,-0.469590309051724
mp-1225934,CsMnVF6,-3.104633921034099
mp-1204906,CsMo2P2O11,-2.4462461272964138
mp-1199248,CsMo2P3O13,-2.52036474744134
mp-581922,CsMo3Br3Cl4,-1.2483925965224465
mp-1213536,CsMo3Cl7,-1.5093470983206272
mp-1213398,CsMo3I3Cl4,-1.1098084678860822
mp-1199497,CsMo3I7,-0.5963399512460815
mp-645605,CsMo4(PO4)7,-2.507857585030172
mp-5883,CsMo6Se7,-0.6341737858116535
mp-1147716,CsMoC6,0.913670490161639
mp-1201688,CsMoF7,-2.8035380156429883
mp-1238260,CsMoH2C2SO7,-1.5451074500006698
mp-1080845,CsMoN2,-0.6035178160229728
mp-1200253,CsMoN3O11,-1.3514817879435563
mp-1183917,CsMoO3,-1.8590404339913784
mp-1203598,CsMoP2HO9,-2.3984629257401866
mp-651178,CsMoP2O7,-2.6389586451584184
mp-1204852,CsMoS(ClO)2,-1.5785204223984854
mp-1059879,CsN,1.245024890706552
mp-1104441,CsN2,0.2272501830110348
mp-510557,CsN3,-0.4325260183367233
mp-3288,CsNO2,-1.3747764827717237
mp-561851,CsNO3,-1.503788658245157
mp-1095650,CsNa2,0.00422024209770111
mp-733457,CsNa2(H5O3)3,-1.4881459073798842
mp-8871,CsNa2BO3,-2.245418203089081
mp-866613,CsNa2Be6(BO3)5,-2.8999725199410413
mp-1096426,CsNa2Bi,0.6576753821982759
mp-1194719,CsNa2Fe3P4ClO14,-2.5011684674215324
mp-640321,CsNa2Ge17,-0.080301671810345
mp-1205112,CsNa2H3(SO4)3,-2.0601043427025907
mp-721697,CsNa2H4Cl3O2,-1.752502529830575
mp-1195634,CsNa2Mn3P4ClO14,-2.590785137136733
mp-1096304,CsNa2Sb,0.6581537121982759
mp-4877,CsNa2Si17,-0.04213596431034432
mp-1185541,CsNa3,0.08501379719827562
mp-17125,CsNa3Li12(GeO4)4,-2.238086169477969
mp-1198312,CsNa3P4(H2O5)3,-2.2600796429395973
mp-505396,CsNa3PbO4,-1.6125607145785439
mp-18182,CsNa3TiO4,-2.4179468403192854
mp-1194022,CsNa3U4(MoO10)2,-2.985474281873564
mp-1226173,CsNa5(FeO3)2,-1.75468017169335
mp-581834,CsNa5(WN3)2,-0.6168988144990644
mp-997591,CsNa7Ta8O24,-3.0352744822801725
mp-1226923,CsNaB10(H2O9)2,-2.5903394511721642
mp-1199766,CsNaB10H31N7,-0.4647355939350712
mp-542533,CsNaB4H12O13,-1.9607513966955992
mp-1189817,CsNaC2,0.2666676003232755
mp-1226662,CsNaEuNb5O15,-3.0221382065198634
mp-998609,CsNaF3,-2.42513652545538
mp-29566,CsNaGe2,-0.19627178092672404
mp-1021431,CsNaICl,-1.681130656116724
mp-1034881,CsNaMg14O15,-2.6696814199986085
mp-1039864,CsNaMg30O31,-2.8277842652374114
mp-1099338,CsNaMg6,0.30030339359913794
mp-1098107,CsNaMg6O7,-2.272385047997126
mp-1213599,CsNaNbOF5,-3.2879758398229875
mp-1183929,CsNaO3,-0.3056752429913793
mp-6973,CsNaS,-1.2750672484231331
mp-8658,CsNaSe,-1.0926273982668822
mp-572951,CsNaSi2O5,-2.9247418049952105
mp-1225970,CsNaSiO3,-2.654408478881705
mp-14380,CsNaSnF6,-3.0464295787052107
mp-5339,CsNaTe,-1.0142992887356321
mp-560791,CsNaTiO3,-2.7618927086039284
mp-6257,CsNb(BO3)2,-2.9139857722040228
mp-505321,CsNb(CuTe2)2,-0.4902978514008618
mp-555286,CsNb(PO4)2,-2.866007360874384
mp-1226910,CsNb2(SiO3)8,-2.8094413816059127
mp-562854,CsNb2BiO7,-2.6809989445415363
mp-641699,CsNb2PS10,-1.207974147783912
mp-1195822,CsNb2PSe10,-0.5882557258419467
mp-1213520,CsNb3(PO5)3,-2.9394846567675215
mp-573274,CsNb3SBr7,-1.1955237035641169
mp-1213417,CsNb3VCl11,-1.7672765713791811
mp-1226881,CsNb4Ag(PS10)2,-1.122753848276523
mp-569853,CsNb4Br11,-1.0297410244504317
mp-582146,CsNb4Cl11,-1.7668565591916816
mp-1147682,CsNbC6,0.8559796864116382
mp-1213080,CsNbCl6,-1.9223749657208615
mp-11980,CsNbF6,-3.4518524066683622
mp-1030663,CsNbN2,-0.9322021521167241
mp-27556,CsNbO3,-2.848547173741379
mp-1196826,CsNbS2O9,-2.3966866371601463
mp-1194659,CsNbV2O8,-2.6202741838505745
mp-1225952,CsNbWO6,-2.6381418126341
mp-1183961,CsNd,0.6283595231465515
mp-1189250,CsNd(ClO)4,-1.3964293196746886
mp-1213270,CsNd(MoO4)2,-2.600901789892241
mp-1226879,CsNd(PO3)4,-2.9448426464228703
mp-1198706,CsNd(SeO6)2,-0.9118238592746506
mp-1213150,CsNd(WO4)2,-2.6374133053089075
mp-1190370,CsNd2Ag3Te5,-0.9121642928369902
mp-862772,CsNd2CuSe4,-1.4979814300727368
mp-1228954,CsNd2Ti2NbO10,-3.420634066690013
mp-1183944,CsNd3,0.5684431178232758
mp-38442,CsNd5Se8,-1.7677711530326354
mp-510065,CsNdHgSe3,-1.2364050315813582
mp-554929,CsNdNb2O7,-3.2014479588597187
mp-553308,CsNdO2,-2.8642479653017237
mp-1183922,CsNdO3,-2.17281870749138
mp-9081,CsNdS2,-2.1315720904579742
mp-11742,CsNdTe2,-1.404698545926725
mp-12342,CsNdZnTe3,-1.1050453739511497
mp-1080570,CsNiBr3,-0.9569637722413796
mp-672303,CsNiC3(SN)3,-0.30285634743494616
mp-22950,CsNiCl3,-1.5372558601973794
mp-557772,CsNiF3,-2.502600902955379
mp-1232310,CsNiO2,-0.921269117176724
mp-1228875,CsNiP,0.011373058883415629
mp-560600,CsNiPdF5,-2.163476052144612
mp-862802,CsNpCuS3,-1.5023505345240669
mp-1213571,CsNpMoO6,-2.7350913977729903
mp-1183933,CsNpO3,-2.9935952797413794
mp-1441,CsO2,-0.970368869568965
mp-1192392,CsOs2O9,-1.5218189689547412
mp-1196677,CsOsC3(ClO)3,-1.3775188257715365
mp-1119132,CsOsN2,-0.07826067374172396
mp-561383,CsOsNO3,-1.3963085449728159
mp-1183914,CsOsO3,-1.3328559229913792
mp-1192733,CsP(HO)2,-1.6209178067649586
mp-1197651,CsP(HO2)2,-2.2364018753862185
mp-1191996,CsP2(HO2)3,-2.112266929904384
mp-1195974,CsP2H5O8,-2.115091379130788
mp-679983,CsP4N7,-0.6872907517865272
mp-1201790,CsP7,-0.19788138765086227
mp-675011,CsPF6,-3.1344183219362187
mp-574928,CsPH3O3F,-2.0053706190721945
mp-542541,CsPH3O4F,-2.2027479560399748
mp-767240,CsPH4(NO)2,-1.3371646402589754
mp-1213232,CsPO3,-2.701151020419951
mp-1095630,CsPO4,-2.011954743058292
mp-1021466,CsPPb(IF3)2,-2.385920595953614
mp-1192530,CsPPbO4,-2.444469444407108
mp-562569,CsPPbS4,-1.0748961810142512
mp-1193277,CsPPbSe4,-0.5649022328892508
mp-504838,CsPS3,-1.104109826107451
mp-1200224,CsPSO2,-2.156651190982452
mp-1183920,CsPaO3,-3.48140001799138
mp-1238811,CsPb2Br5,-1.172827006400862
mp-984872,CsPb2Cl5,-1.755137053438362
mp-1238789,CsPb2I5,-0.8642992707758621
mp-1183989,CsPb3,-0.13689191905172393
mp-567629,CsPbBr3,-1.3208464842413796
mp-675524,CsPbCl3,-1.87373922819738
mp-20282,CsPbF3,-2.8022247639553797
mp-540839,CsPbI3,-1.0403472677413792
mp-1185545,CsPbO3,-1.1371282819913795
mp-29988,CsPd2Cl5,-1.245772815000862
mp-5972,CsPd2F5,-1.9102180040196117
mp-998307,CsPdBr3,-0.9288412112413796
mp-29882,CsPdCl3,-1.4681548401973796
mp-1207302,CsPdF3,-2.11514189095538
mp-1183913,CsPdO3,-0.7020902239913795
mp-1183964,CsPm,0.6495547931465513
mp-18698,CsPr(CO3)2,-2.553623966620691
mp-649915,CsPr(MoO4)2,-2.596751862183908
mp-1213382,CsPr(NbBr3)6,-1.1522256440848804
mp-17770,CsPr(PO3)4,-2.9394427244321286
mp-540686,CsPr(SO4)2,-2.678113375985992
mp-1202917,CsPr(SO6)2,-1.3735192107394931
mp-1213319,CsPr(WO4)2,-2.633423098433908
mp-1190295,CsPr2Ag3Te5,-0.8707214687460808
mp-1213617,CsPr2Cl7,-2.6791017607776886
mp-1183946,CsPr3,0.5495953934482758
mp-1190682,CsPr3CI6,-1.3333986390869903
mp-1213658,CsPr6FeI10,-1.2217854915948274