task_id,composition,formation_energy_per_atom
mp-1078814,Ce2C2Cl,-1.007957254152
mp-20181,Ce2C3,-0.2540408457499993
mp-1213870,Ce2CN3Cl,-1.5261331977357142
mp-1103370,Ce2Cd(SeO)2,-2.4734923378125
mp-1215055,Ce2Cd17,-0.09240466815789472
mp-1078672,Ce2CdCu2,-0.15167224899999993
mp-985438,Ce2CdHg,-0.2017085487499997
mp-1183867,Ce2CdIn,-0.21017703208333272
mp-1183762,Ce2CdPb,-0.2478531037499998
mp-11965,Ce2CdPd2,-0.6602634730000005
mp-11964,Ce2CdPt2,-0.9462441810000002
mp-34145,Ce2CdS4,-1.892795308750001
mp-1226843,Ce2CdSb4,-0.6763537049999994
mp-34175,Ce2CdSe4,-1.377625659910714
mp-1206758,Ce2Cl2O,-1.5797598255540002
mp-1191328,Ce2Co12P7,-0.7720670326190473
mp-1227675,Ce2Co16Cu,-0.06187998578947354
mp-2216,Ce2Co17,-0.07925286868421129
mp-1213920,Ce2Co17H3,-0.13315912458454512
mp-1189037,Ce2Co3Si5,-0.7714287959999993
mp-1196386,Ce2Co7,-0.15735840111111088
mp-504616,Ce2Co7B3,-0.4073425741666661
mp-1227056,Ce2CoGe4Ru3,-0.6148176145000008
mp-1226767,Ce2CoRu3,-0.27201496750000115
mp-20355,Ce2CoSi3,-0.7534154600000006
mp-1147587,Ce2Cu(NO)2,-2.1506228924657145
mp-1227915,Ce2Cu11Au,-0.1605453214285712
mp-1227069,Ce2Cu3Sb4,-0.4946875177777778
mp-1195928,Ce2CuBiS5,-1.6111656725347232
mp-1226816,Ce2CuGe3,-0.5963433324999995
mp-5684,Ce2CuGe6,-0.4190459277777773
mp-1213871,Ce2CuS2O,-1.0179980182291668
mp-1226885,Ce2CuSi3,-0.6554099033333335
mp-673848,Ce2Dy2O7,-3.9149005844318174
mp-1078159,Ce2Fe(SeO)2,-2.3914188528125
mp-1188210,Ce2Fe12Co5,-0.02406130263157916
mp-1191482,Ce2Fe12Co5N3,-0.28352056668818193
mp-541196,Ce2Fe12P7,-0.7194491759523798
mp-4459,Ce2Fe14B,-0.07531976950980379
mp-1215108,Ce2Fe14C,-0.03762950213235386
mp-1227149,Ce2Fe17C,-0.016608565937501398
mp-1191404,Ce2Fe17C3,-0.05548831937500025
mp-1190701,Ce2Fe17H3,-0.07299914208454597
mp-5662,Ce2Fe17N3,-0.27852352305181943
mp-1227651,Ce2Fe20Si2C,-0.10997795235000013
mp-1078984,Ce2Fe2S2O3,-2.4442774568750005
mp-1214220,Ce2Fe2S5,-1.6186097400347232
mp-1078283,Ce2Fe2Se2O3,-2.2534549456597217
mp-1025289,Ce2Fe2Si2C,-0.6012942683928567
mp-1226906,Ce2Fe3Rh,-0.17072550000000086
mp-1226857,Ce2FeRu3,-0.2259896025000004
mp-1226814,Ce2FeSi3,-0.5733921533333337
mp-7720,Ce2Ga10Ni,-0.4174498007692308
mp-12746,Ce2Ga10Pd,-0.4548687853846146
mp-5981,Ce2Ga12Cu,-0.3264675496666664
mp-567195,Ce2Ga12Ni,-0.3881638359999997
mp-568885,Ce2Ga12Pd,-0.4037439716666664
mp-1106200,Ce2Ga2Co15,-0.1145321668421052
mp-1182265,Ce2Ga2Fe15,-0.042624553684211273
mp-1226999,Ce2Ga3Cu,-0.4796345549999999
mp-1226987,Ce2Ga5Au3,-0.4714276469999987
mp-1226949,Ce2Ga5Cu3,-0.4208128870000011
mp-1226980,Ce2Ga7Pd,-0.5400463999999999
mp-1193354,Ce2Ga9CoGe2,-0.3632446467857144
mp-1229315,Ce2Gd2O7,-3.862396103750001
mp-1226896,Ce2Ge2IrRh,-0.8911193683333328
mp-1226876,Ce2Ge3Rh,-0.7641717458333327
mp-567664,Ce2Ge4Pt7,-0.8014266138461542
mp-1188091,Ce2Ge5Ir3,-0.7375147349999999
mp-1106369,Ce2Ge5Rh3,-0.8071711449999995
mp-1196411,Ce2H16S3O20,-1.929354579148964
mp-1104579,Ce2H5,-0.6102067854428564
mp-1227797,Ce2HfCo16,-0.11816109052631568
mp-985298,Ce2HfS5,-2.2806119856640628
mp-1006367,Ce2HfSe5,-1.6414016244335938
mp-1183809,Ce2HgPb,-0.3223290725000001
mp-19733,Ce2In,-0.2160866011111112
mp-1226938,Ce2In2PdRh,-0.7059279305555558
mp-645068,Ce2In3Ru2,-0.4280872889285711
mp-604594,Ce2In5Pd4,-0.5865112556060604
mp-19989,Ce2In8Co,-0.2996860269696972
mp-1207157,Ce2In8Ir,-0.3774942024242423
mp-1102172,Ce2In8Pd,-0.4213326042424241
mp-1103614,Ce2In8Pt,-0.4411602778787879
mp-1206465,Ce2In8Rh,-0.4177971251515147
mp-1227262,Ce2InAg,-0.17660925833333252
mp-1206585,Ce2InAu2,-0.667978157666667
mp-1206783,Ce2InCu2,-0.2437361246666661
mp-642448,Ce2InCuSe5,-1.1888117487557877
mp-20959,Ce2InGe2,-0.6400597026666659
mp-640108,Ce2InNi2,-0.4660619496666669
mp-20165,Ce2InPd2,-0.750538515666667
mp-20357,Ce2InPt2,-1.0271418936666663
mp-1205710,Ce2InRh2,-0.7733358236666661
mp-1190097,Ce2Ir7,-0.5301476161111098
mp-1094918,Ce2Mg,0.0235996983333339
mp-680564,Ce2Mg17,0.022564260263157627
mp-1226970,Ce2Mg5Au,-0.10594915375000014
mp-984682,Ce2MgAl,-0.0930014874999996
mp-1183801,Ce2MgCd,0.0048281762500002046
mp-1227012,Ce2MgCo9,-0.1303148908333339
mp-22810,Ce2MgCu2,-0.09536000499999986
mp-22511,Ce2MgGe2,-0.6487842659999998
mp-1184007,Ce2MgIn,-0.1102546983333328
mp-19910,Ce2MgNi2,-0.3106859989999997
mp-1183811,Ce2MgPb,-0.13929266750000036
mp-1232202,Ce2MgS4,-2.1586958808928576
mp-1232108,Ce2MgSe4,-1.6014620206249996
mp-505296,Ce2MgSi2,-0.5843759750000004
mp-1226954,Ce2MgZn,-0.047718913750000265
mp-1226784,Ce2Mn(SeO)2,-2.4862942315210708
mp-1227057,Ce2Mn17C2,-0.04673932892857075
mp-1078566,Ce2Mn2Se2O3,-2.3407350436508327
mp-1226844,Ce2Mn3Al,-0.05967108499999915
mp-1191913,Ce2Mn3Cu9As7,-0.3079219788095241
mp-1192355,Ce2Mn3Cu9P7,-0.4303474792857138
mp-1226880,Ce2Mn3Si4Pd,-0.6355159659999998
mp-1227019,Ce2Mn7Al10,-0.2922899394736835
mp-10068,Ce2MnN3,-1.4414252078566665
mp-13263,Ce2Mo2C3,-0.2819633337500004
mp-648971,Ce2Mo4O15,-2.5664835168452367
mp-1101996,Ce2NCl3,-2.38510597786
mp-1199771,Ce2Nb2S7O30,-2.447272972096037
mp-754846,Ce2Nd2O7,-3.8304303303409104
mp-1191623,Ce2Ni12As7,-0.5273760450000002
mp-1214085,Ce2Ni12P5,-0.6916248992481205
mp-569521,Ce2Ni12P7,-0.7509734330952378
mp-569096,Ce2Ni22C3,-0.1286953106018521
mp-22713,Ce2Ni2Sn,-0.4979746730000002
mp-1213960,Ce2Ni3Ge5,-0.6461230174999997
mp-1095458,Ce2Ni5B4,-0.479544024242424
mp-1204381,Ce2Ni7,-0.3785991738888883
mp-505789,Ce2Ni7P4,-0.8661957356593407
mp-21169,Ce2NiB10,-0.5774619558974348
mp-1102475,Ce2NiGe3,-0.7082689674999992
mp-1226780,Ce2NiPt,-0.6894938699999997
mp-1226785,Ce2NiRu3,-0.3300227491666661
mp-1227353,Ce2NiSn2Pt,-0.7834584699999994
mp-1227379,Ce2NiSn4,-0.5593039385714289
mp-542313,Ce2O3,-3.7766603332499984
mp-628664,Ce2P3Au,-1.0394961098214288
mp-1102498,Ce2PPt8,-0.880594533831169
mp-675925,Ce2PbS4,-1.921775175178572
mp-676072,Ce2PbSe4,-1.4262096820535717
mp-21443,Ce2Pd2Pb,-0.7347535990000005
mp-1226790,Ce2PrO6,-3.63087146638889
mp-1025285,Ce2Re2Si2C,-0.5551642319642838
mp-1197667,Ce2Re3Si5,-0.6072637327500005
mp-985704,Ce2ReC2,-0.2939711090000003
mp-1182813,Ce2S3O16,-1.7603750704613104
mp-1190870,Ce2S4O17,-2.3443946172826093
mp-3972,Ce2SO2,-3.470350243312501
mp-1080287,Ce2Sb2Se5,-0.9972617364409716
mp-1196528,Ce2Sb4Ir3,-0.6877349305555546
mp-1200949,Ce2Sb4Rh3,-0.8270350683333336
mp-1226895,Ce2SbAu3,-0.7158482324999996
mp-20356,Ce2SbO2,-2.9472014895000003
mp-629511,Ce2SbS5Br,-1.6233768994791684
mp-1226772,Ce2SbTe,-1.2244599512499992
mp-505512,Ce2Sc3Si4,-0.7684866505555559
mp-1205723,Ce2ScSi2,-0.6437750629999996
mp-1205034,Ce2Se4O17,-1.6712406498097818
mp-27617,Ce2SeF4,-3.7323180690505353
mp-1069558,Ce2SeN2,-1.8206470426707493
mp-754640,Ce2SeO2,-3.2683628302187504
mp-1226737,Ce2SeS,-2.0734733881640635
mp-1202894,Ce2Si2Ni15,-0.2698274542105266
mp-1226865,Ce2Si2NiPt,-0.9265111133333322
mp-672208,Ce2Si2O7,-3.561470174772728
mp-1205534,Ce2Si2Sn,-0.6358645519999996
mp-1226801,Ce2Si3,-0.5772209240000009
mp-1226898,Ce2Si3Ni,-0.7340241333333329
mp-31163,Ce2Si3Rh,-0.8916803308333338
mp-1226778,Ce2Si4OsRu3,-0.8409316390000001
mp-567579,Ce2Si4Pt7,-0.9964504153846152
mp-1105703,Ce2Si5Ir3,-0.9804293839999986
mp-1227485,Ce2Si5Ni17,-0.4671921029166661
mp-1183797,Ce2Si5Ni3,-0.7786799625
mp-1213852,Ce2Si5Pd3,-0.811147458
mp-1188214,Ce2Si5Rh3,-0.9730850625000004
mp-1079241,Ce2Si7,-0.3685739166666661
mp-628614,Ce2Si7Rh15,-0.8674531718750002
mp-1227027,Ce2Si9Ni17,-0.5968767260714287
mp-1226899,Ce2SiGe,-0.6668904624999996
mp-1203477,Ce2SiPd14,-0.5719313300000007
mp-558269,Ce2SiS5,-1.9192916687890629
mp-542664,Ce2SiSeO4,-3.253159816074218
mp-542663,Ce2SiTeO4,-3.1584332203124994
mp-752400,Ce2Sm2O7,-3.8341890894318182
mp-37045,Ce2SmS4,-2.40033009625
mp-1213936,Ce2Sn3,-0.6001509274999997
mp-541131,Ce2Sn5,-0.5657296157142854
mp-1183747,Ce2SnHg,-0.4271076037499988
mp-1206052,Ce2SnPd2,-0.8303280919999991
mp-1106406,Ce2SnS5,-1.8362042975390624
mp-1006368,Ce2SnSe4,-1.3487601359821422
mp-1213882,Ce2Ta2O9,-3.575981682403845
mp-1214188,Ce2Ta3(SeO4)2,-3.0732510706458345
mp-1229283,Ce2Te(Mo2O15)3,-0.7556983212268512
mp-1195865,Ce2Te4Cl2O11,-2.2402881671194734
mp-31248,Ce2Te4O11,-2.248793784338236
mp-1104233,Ce2Te5,-1.0444723871428572
mp-1196951,Ce2Te7Br2O17,-1.945388794151786
mp-1203316,Ce2Te7Cl2O17,-2.004479434741785
mp-1201322,Ce2TeMo6(H6O7)6,-1.7131789992278164
mp-4873,Ce2TeO2,-3.1246874165000014
mp-1226732,Ce2TeSe,-1.5350139746484377
mp-759386,Ce2Th2O7,-4.0686829135227285
mp-1226807,Ce2ThO6,-4.0868651641666665
mp-1226812,Ce2ThS3,-2.3114007920312503
mp-1201912,Ce2ThS5,-2.4294400159765632
mp-1227780,Ce2Ti2Fe22H,-0.08131496229456855
mp-560000,Ce2Ti2SiO9,-3.615593798541668
mp-768309,Ce2TiO5,-3.769780704114584
mp-1183716,Ce2TlAg,-0.12049179125000008
mp-1226883,Ce2U2O9,-3.6205510931730767
mp-773114,Ce2U3O10,-3.8887617855000003
mp-1226776,Ce2UO6,-3.947701838611111
mp-985558,Ce2US5,-2.232509188164064
mp-676083,Ce2USe4,-1.5881865834821431
mp-985277,Ce2USe5,-1.5682028556835936
mp-676497,Ce2UTe4,-1.1162411521428572
mp-1227655,Ce2VCo16,-0.09557369499999954
mp-1227428,Ce2VFeO6,-3.1156361387500007
mp-1215148,Ce2W4S3O14,-1.516969341508151
mp-567492,Ce2WC2,-0.275917656499999
mp-1214437,Ce2WO6,-3.256121109444444
mp-1226822,Ce2Y(AlPd)3,-0.8098154722222214
mp-36699,Ce2Y2O7,-3.924472011249998
mp-1207182,Ce2YSi2,-0.6169970929999998
mp-1195151,Ce2Zn(SeO)2,-2.4905045712410714
mp-978252,Ce2Zn17,-0.2408493297368421
mp-640899,Ce2Zn2Cu5,-0.1540772549999995
mp-17587,Ce2Zn2Ni5,-0.356541932222222
mp-1189370,Ce2Zn2Sn2H3,-0.4381370223177778
mp-1226833,Ce2Zn3Cu7,-0.17794182458333316
mp-606377,Ce2Zn4Ru,-0.3493547771428567
mp-1106202,Ce2Zn5Sn,-0.373407973125
mp-1226818,Ce2ZnBi4,-0.49600966357142895
mp-985471,Ce2ZnHg,-0.20699284375000016
mp-1183763,Ce2ZnIn,-0.2123753645833335
mp-977439,Ce2ZnPb,-0.24186939124999984
mp-1226796,Ce2ZnSb4,-0.6993038635714289
mp-560329,Ce2Zr2O7,-3.82577678034091
mp-1227870,Ce2ZrCo16,-0.10311282421052606
mp-1226797,Ce2ZrO6,-3.86418752638889
mp-1203122,Ce2ZrS5,-2.273111851289064
mp-1194651,Ce2ZrSe5,-1.6520597594335935
mp-640597,Ce3(AgGe)4,-0.4704296772727268
mp-542824,Ce3(AgSn)4,-0.44952301181818266
mp-29113,Ce3(Al2Si3)2,-0.4334295923076927
mp-1213926,Ce3(Al3Os)4,-0.5821277984210539
mp-1199697,Ce3(Al3Pt2)2,-0.9742713094230768
mp-31079,Ce3(Al3Ru)4,-0.6460814192105265
mp-636773,Ce3(AlI)2,-0.6653821657142852
mp-3603,Ce3(BN2)2,-1.5596810592059254
mp-22623,Ce3(CuGe)4,-0.5473619281818177
mp-542881,Ce3(CuSn)4,-0.4392561390909093
mp-1213977,Ce3(GaRh)2,-0.7220403992857142
mp-672275,Ce3(Ge3Pd10)2,-0.6385885144827597
mp-21597,Ce3(GeRh)2,-0.8538344210714277
mp-1206300,Ce3(GeRh)4,-0.8964801554545442
mp-21556,Ce3(InRu)2,-0.4526986966666665
mp-1226900,Ce3(MgRh2)2,-0.6124134999999993
mp-1206464,Ce3(NiGe)4,-0.6987741863636365
mp-1214002,Ce3(P3Pd10)2,-0.6739744828571436
mp-1192814,Ce3(Si3Pd10)2,-0.7813989620689671
mp-504613,Ce3(Si4Ni)2,-0.6153110646153845
mp-1206722,Ce3(SiNi)4,-0.7810892272727262
mp-510324,Ce3(SiNi3)2,-0.5809375072727279
mp-1103548,Ce3(SiPd)4,-0.8998558563636359
mp-978253,Ce3(SiRh)2,-0.8546930307142853
mp-1215117,Ce3(Sn3Pd2)2,-0.7083729988461541
mp-867221,Ce3(TaN3)2,-1.5835301203890901
mp-1197596,Ce33Fe13(B9C17)2,-0.3098750601785719
mp-866604,Ce3AgGeS7,-1.7511255519531257
mp-1213865,Ce3Al11,-0.3494808092857135
mp-1229297,Ce3Al3Pd2Pt,-0.8341657711111112
mp-1191432,Ce3AlCdS7,-1.925371541953125
mp-866516,Ce3AlCrS7,-1.9650595452864583
mp-1192925,Ce3AlFeS7,-1.9499095373697912
mp-10881,Ce3AlN,-0.8239274184759993
mp-1206367,Ce3AlO,-1.4043377762499991
mp-1192994,Ce3AlVS7,-2.0230949102864586
mp-1192897,Ce3AlZnS7,-1.953472917786458
mp-1200622,Ce3As2ClO7,-2.9464940799623074
mp-675514,Ce3AsS3,-2.121474354598214
mp-680695,Ce3B2(ClO2)3,-3.174213370758096
mp-1192206,Ce3BeCrS7,-1.9482879365364585
mp-1105587,Ce3Bi4Au3,-0.6434533950000002
mp-582142,Ce3Bi4Pd3,-0.7869083379999999
mp-1105392,Ce3Bi4Pt3,-0.8591115835000009
mp-984727,Ce3Br,-0.21533428249999967
mp-679986,Ce3Br6N,-1.8372135789879989
mp-1215059,Ce3C2Br3,-1.1851749410937495
mp-580802,Ce3CCl5,-2.088689552783334
mp-573743,Ce3CI5,-1.1674694493055553
mp-1183748,Ce3Cd,-0.01638196874999931
mp-1183784,Ce3Cl,-0.3670726758149998
mp-13765,Ce3Co11B4,-0.3799033403703697
mp-16083,Ce3Co29(Si2B5)2,-0.4323583217753624
mp-21915,Ce3Co4Sn13,-0.35339347924999986
mp-1214094,Ce3Co8Si,-0.2914209091666666
mp-1214556,Ce3CoGe2,-0.6341103874999993
mp-1183868,Ce3Cr,0.3695017350000001
mp-1214072,Ce3Cr10N11,-0.9755601623408326
mp-1214308,Ce3CrS6,-2.0894738066875007
mp-1183872,Ce3Cu,0.10698253999999974
mp-1189165,Ce3Cu3Sb4,-0.7030041269999991
mp-1213889,Ce3Cu4(P2O)2,-1.5356163454670326
mp-558303,Ce3CuGeS7,-1.8010622773697922
mp-570564,Ce3CuGeSe7,-1.2641859445963544
mp-558375,Ce3CuSiS7,-1.88976072403646
mp-571472,Ce3CuSiSe7,-1.3075483550130211
mp-510567,Ce3CuSnS7,-1.7785838344531255
mp-542806,Ce3CuSnSe7,-1.2618555616796872
mp-985557,Ce3Dy,0.10071444250000017
mp-675192,Ce3Dy2O9,-3.908124565803572
mp-1183435,Ce3Er,0.09972567125000076
mp-1183912,Ce3Eu,0.22164078124999964
mp-19920,Ce3Ga,-0.2431575549999989
mp-1104373,Ce3Ga10Ni,-0.5047233878571424
mp-1106087,Ce3Ga2,-0.35969575199999965
mp-30278,Ce3Ga4Cl,-0.9414489122824996
mp-569898,Ce3GaBr3,-1.194515815714286
mp-1183889,Ce3Gd,0.10466580000000024
mp-1200337,Ce3Ge,-0.3721487081249988
mp-1198260,Ce3Ge13Ir4,-0.5310907812499999
mp-1201534,Ce3Ge13Os4,-0.35086531999999976
mp-1204084,Ce3Ge13Ru4,-0.4542223272500003
mp-1213908,Ce3Ge5,-0.6704964531249997
mp-680221,Ce3Ge5Pd14,-0.6997440936363636
mp-1226804,Ce3GeS2,-1.8324424988541663
mp-1183827,Ce3Hf,0.1127695687500001
mp-1213881,Ce3HfSb5,-0.9172683227777771
mp-1183746,Ce3Hg,-0.09168727249999976
mp-1183838,Ce3Ho,0.09889861874999983
mp-1183731,Ce3I,-0.15665973624999996
mp-20984,Ce3In,-0.19155643333333305
mp-1214394,Ce3In4Ge,-0.4506524629166666
mp-20992,Ce3InC,-0.32100148441666576
mp-1192762,Ce3IrI3,-1.0829491653571424
mp-1038876,Ce3Mg,0.07938528249999965
mp-1227195,Ce3Mg2InAu3,-0.5879736159259245
mp-866517,Ce3MgAlS7,-2.099121483619792
mp-669550,Ce3Mn(Al3Cu)8,-0.17697795972222252
mp-866500,Ce3MnAlS7,-1.969475058619792
mp-639263,Ce3MnBi5,-0.3798743772222216
mp-667362,Ce3NCl6,-2.5016100269440003
mp-675921,Ce3NF6,-3.718987473952
mp-683997,Ce3NbS3O4,-3.0198288324715916
mp-1213895,Ce3NbSb5,-0.8255188994444443
mp-676077,Ce3Nd2O9,-3.8394388840178566
mp-1226856,Ce3NdC8,-0.12091921812499964
mp-21136,Ce3Ni2B2N3,-1.2367088900473333
mp-1213875,Ce3Ni2Ge7,-0.6693406862500003
mp-510126,Ce3Ni2Sn7,-0.5386861912499997
mp-1191014,Ce3NiGe2,-0.6594574412499993
mp-1213927,Ce3PBr3,-1.5767235695918365
mp-1213898,Ce3PI3,-1.2699745817346937
mp-985284,Ce3Pa,0.12146504375000068
mp-570018,Ce3Pb,-0.2635575975000002
mp-20550,Ce3PbC,1.80577674225
mp-1103851,Ce3Pd4,-0.7282813957142855
mp-1183767,Ce3Pm,0.11347631562500028
mp-1226860,Ce3PrO8,-3.708997978333333
mp-1104731,Ce3Pt2,-0.8389972079999988
mp-1104294,Ce3Pt4,-1.093272073571428
mp-1103692,Ce3Rh2,-0.5857138019999998
mp-1214105,Ce3Rh4Pb13,-0.2546374875000005
mp-672261,Ce3Ru,-0.195476516874999
mp-510277,Ce3S2O3,-3.382050748046876
mp-543033,Ce3S3N,-2.2555195177953573
mp-1202383,Ce3S3O16,-2.6600643119176137
mp-1382,Ce3S4,-2.40463889375
mp-569941,Ce3Sb3Au2,-0.867639535625
mp-1188608,Ce3Sb4Pt3,-1.0752727970000002
mp-662558,Ce3Sb5Pd6,-0.8472130307142862
mp-1226836,Ce3SbAs2,-1.2732368708333326
mp-1226864,Ce3Sc,0.05157098000000016
mp-1227866,Ce3Se2NO,-2.3255142882120223
mp-567370,Ce3Se4,-1.8422518434821429
mp-568452,Ce3Si11Pt23,-0.885627727837837
mp-1079007,Ce3Si2,-0.5697932399999999
mp-558019,Ce3Si2BO10,-3.5251540644010406
mp-623044,Ce3Si2Rh3,-0.9085658040625004
mp-669378,Ce3Si2S8Br,-1.8192360605357147
mp-542133,Ce3Si2S8Cl,-1.882848998268572
mp-555409,Ce3Si2S8I,-1.7802408462500008
mp-1213874,Ce3Si2Sn3,-0.3969677037499997
mp-541712,Ce3Si6N11,-1.4562663210589988
mp-866605,Ce3SiAgS7,-1.8392299423697924
mp-18071,Ce3SiAgSe7,-1.2854773929296879
mp-1229323,Ce3SiCl5O4,-3.1199891983692307
mp-1214037,Ce3SiI3,-1.0511551189285715
mp-30155,Ce3SiPd5,-0.8189373827777781
mp-1226845,Ce3SiS2,-1.7845930580208336
mp-1183782,Ce3Sm,0.10474751187500077
mp-20735,Ce3Sn,-0.4056553412499993
mp-1200449,Ce3Sn13Ir4,-0.4913030644999992
mp-7203,Ce3Sn13Rh4,-0.55700928125
mp-1198582,Ce3Sn13Ru4,-0.4138168054999993
mp-1213912,Ce3Sn3Ge2,-0.4302325006249994
mp-1189084,Ce3Sn5,-0.5915529724999988
mp-1193042,Ce3Sn5Au6,-0.5530299839285711
mp-1105483,Ce3Sn6Ru,-0.5523735150000008
mp-28416,Ce3Sn7,-0.5778642675000001
mp-20159,Ce3SnC,1.6308234012499994
mp-1206922,Ce3SnN,-1.0465986354759995
mp-1226979,Ce3SnO8,-3.392382395416666
mp-1213823,Ce3Ta(Cl3O2)2,-3.0786899660400002
mp-558609,Ce3Ta(ClO2)3,-3.454833294406153
mp-22422,Ce3Te4,-1.396064005
mp-1183824,Ce3Th,0.008194342500000396
mp-754058,Ce3Th2O9,-4.09207332080357
mp-754176,Ce3Th3O11,-4.132355286102942
mp-1226937,Ce3Th3Si4,-0.6130333579999991
mp-766570,Ce3Th4O14,-4.191172451785714
mp-1183711,Ce3Ti,0.17235186333333366
mp-1214504,Ce3Ti6Fe23,-0.11590702062500036
mp-1193048,Ce3TiAlS7,-2.102996893758681
mp-1213815,Ce3TiSb5,-0.9045428412962968
mp-21412,Ce3Tl,-0.12087786374999965
mp-21319,Ce3TlC,1.86585206125
mp-1183769,Ce3Tm,0.14911741375000087
mp-1227021,Ce3UAl8,-0.3676600358333329
mp-1226924,Ce3UO8,-3.951047009999999
mp-1213830,Ce3W(ClO2)3,-3.09313854979077
mp-1226802,Ce3Y,0.07346835750000036
mp-1227521,Ce3Y(InAu2)4,-0.6187497327083324
mp-755046,Ce3Y4O12,-3.8994221592105274
mp-984772,Ce3Zn,-0.04456857125000013
mp-862292,Ce3Zn11,-0.2741616017857143
mp-698212,Ce3Zn22,-0.2378442713999999
mp-1019589,Ce3Zr5O16,-3.828823722083334
mp-1019591,Ce3ZrO8,-3.884030934583334
mp-1213800,Ce3ZrSb5,-0.9516007388888884
mp-1213853,Ce4(ErS2)11,-2.46753483633446
mp-606703,Ce4(GeS4)3,-1.6218637067763164
mp-1197418,Ce4(HoS2)11,-2.467986179037162
mp-680039,Ce4(LuS2)11,-2.4577318294425683
mp-680692,Ce4(SiS4)3,-1.785122019934211
mp-1204968,Ce4(TmS2)11,-2.465729514847974
mp-1199263,Ce4(YS2)11,-2.4669099929560816
mp-582245,Ce4Al23Ni6,-0.49956426181818203
mp-1096905,Ce4Al2O9,-3.677816353583333
mp-1227640,Ce4AlCo25,-0.058678864999999775
mp-21011,Ce4As3,-1.1887142128571426
mp-1019597,Ce4B14O27,-3.1150307732685185
mp-31017,Ce4B2N5,-1.5782638232030308
mp-1226947,Ce4Bi8Pd3,-0.626991824
mp-1228140,Ce4C10O31,-1.5779071930277777
mp-574262,Ce4C2Br5,-1.303539105227273
mp-569330,Ce4C4Br3,-0.9444077222727274
mp-1204612,Ce4CI6N,-1.341159986135833
mp-1213878,Ce4CdIr,-0.31593562583333323
mp-1214047,Ce4CdNi,-0.10440173499999973
mp-1213866,Ce4CdPd,-0.20913068666666668
mp-1213872,Ce4CdPt,-0.3704312816666662
mp-1191201,Ce4CdRu,-0.1858285504166671
mp-542752,Ce4Co2Sn5,-0.5126624404545449
mp-1193030,Ce4CoS7,-2.0483362869531256
mp-1226941,Ce4CoSi6Au,-0.7440301016666666
mp-1193039,Ce4CrS7,-2.043961310703125
mp-1226848,Ce4Cu3(SO)4,-2.517847560749999
mp-1227972,Ce4Cu5Sb8,-0.5599833470588239
mp-756309,Ce4DyO9,-3.9380066922321433
mp-1213958,Ce4Fe,0.3141059779999999
mp-689668,Ce4FeSe6O,-1.834717401901041
mp-1227560,Ce4Ga2S5O4,-2.6646266330208332
mp-30944,Ce4Ga5Br2,-0.8739872136363629
mp-1195104,Ce4GaSbS9,-1.8799041379375003
mp-997498,Ce4GdO9,-3.9189100122321423
mp-1213824,Ce4Ge3,-0.6926889199999989
mp-1213848,Ce4Ge7,-0.6658220649999997
mp-29776,Ce4Ge9Rh13,-0.8324606844230774
mp-675328,Ce4GeS3,-1.9735213233984377
mp-1226890,Ce4H11,-0.5988255216546666
mp-1199723,Ce4In21Pd10,-0.5159478682857144
mp-580324,Ce4In8Ni7,-0.34979348666666665
mp-1214097,Ce4Mg,0.684320798000001
mp-1205465,Ce4Mg7Ge6,-0.4816818058823524
mp-1213984,Ce4MgRh,-0.18658103541666668
mp-866461,Ce4MgRu,-0.09955560249999944
mp-1227078,Ce4Mn3Sb8,-0.5693387133333326
mp-583771,Ce4MnSe6O,-1.9061728203143748
mp-1214244,Ce4Ni,0.2772291480000007
mp-1227331,Ce4Ni3Bi8,-0.5055333986666672
mp-1226998,Ce4Ni3Pt,-0.49738376
mp-1227577,Ce4Ni4Bi3Sb5,-0.6570628249999997
mp-1227491,Ce4P5SO28,-2.5126147320993892
mp-1226997,Ce4Pu,0.35221613062500123
mp-1213901,Ce4Re6O19,-2.626136615818964
mp-570629,Ce4Ru3,-0.3707487921428572
mp-1191097,Ce4S3NCl3,-2.4008538817588634
mp-19976,Ce4S3O4,-3.3266224556534083
mp-1227009,Ce4S4Cl2O,-2.680684793092728
mp-20680,Ce4Sb3,-0.9158122828571424
mp-1105809,Ce4Se3N2,-1.819574582837916
mp-552177,Ce4Se3O4,-2.992547642798296
mp-561726,Ce4Si2S3O7,-3.2214569306835936
mp-541460,Ce4Si2Se3O7,-3.0362642057519533
mp-1228410,Ce4Si4N6O5,-2.4184871147647358
mp-677082,Ce4Si4N7ClO3,-2.141741860324735