task_id,composition,formation_energy_per_atom
mp-1064843,EuTl3,-0.2864538750000003
mp-1184293,EuTlAu2,-0.5024153049999995
mp-1184250,EuTlHg2,-0.3761391099999996
mp-754253,EuTlO2,-1.005504465625
mp-657233,EuTlPS4,-1.282162500127551
mp-1007900,EuTlS2,-1.5483814945312506
mp-1213610,EuTlS2O9,-1.984166669375
mp-1212784,EuTm2O4,-3.808573129642859
mp-1225132,EuTmB12,-0.4171999024999999
mp-12728,EuTmCuS3,-2.00707010703125
mp-1184353,EuTmO3,-3.2003771777499983
mp-1184404,EuU3,0.7407877262500016
mp-1213318,EuUO3,-3.472860132250001
mp-1198609,EuV(SeO4)2,-2.0161964520572915
mp-1225151,EuV2BiO8,-2.4935947166666668
mp-1197271,EuV2IO9,-2.1411056060576925
mp-1213429,EuVO2,-2.3628704124999995
mp-1178351,EuVO3,-2.9677042092500017
mp-1212926,EuWO2,-1.6735979337500009
mp-1184400,EuWO3,-2.40366583575
mp-1212796,EuWO5,-2.323442319107142
mp-754557,EuY2O4,-3.7305951471428567
mp-1184439,EuY3,0.09802461624999914
mp-1225326,EuYAl6(BO3)8,-3.2071723787083326
mp-769167,EuYO2,-3.1758765643750007
mp-22517,EuYSi4N7,-1.4452856189738468
mp-1019730,EuZn(BO2)5,-2.814284288284313
mp-1191536,EuZn11,-0.1849152941666663
mp-669703,EuZn13,0.2449906453571431
mp-681,EuZn2,-0.29713957
mp-2436,EuZn5,-0.2394597066666666
mp-1102568,EuZnAu,-0.6158345708333327
mp-1184264,EuZnAu2,-0.4947783399999999
mp-1225196,EuZnGa,-0.4330641600000001
mp-9873,EuZnGe,-0.5623943600000002
mp-1225425,EuZnIn,-0.3660478611111107
mp-1225768,EuZnIn3,-0.2841069619999999
mp-1225355,EuZnPb,-0.3651693983333324
mp-1102897,EuZnPd,-0.6288022499999997
mp-21234,EuZnSi,-0.5095113116666662
mp-11040,EuZnSn,-0.5405598341666664
mp-532491,EuZr3F15,-3.992424401465789
mp-755810,EuZr4O9,-3.676330496875
mp-582856,EuZr6(PO4)9,-3.2287758097939583
mp-1212698,EuZrF6,-4.0986875415175
mp-1178354,EuZrO3,-3.571514269250001
mp-1189927,EuZrS3,-2.1801162349375005
mp-1106192,EuZrSe3,-1.5866595256562506
mp-769862,Fe(AsO2)2,-1.689874406071429
mp-1078299,Fe(BMo)2,-0.4282380456666687
mp-566036,Fe(BO2)2,-2.5238585238690483
mp-1225537,Fe(BRh2)3,-0.2529798790000001
mp-1068296,Fe(BW)2,-0.42606170866666704
mp-765035,Fe(Bi5O8)5,-1.6231865750757568
mp-1079633,Fe(BrN)2,0.9815647580480004
mp-617170,Fe(CO)5,-0.7358792995454541
mp-769642,Fe(CO3)2,-1.6513527794444458
mp-1213228,Fe(ClO2)2,-0.7161496909314293
mp-1079439,Fe(ClO2)3,-0.09242743472800044
mp-1225276,Fe(ClO7)2,-0.04221057847176473
mp-767034,Fe(CoO2)2,-1.5422491221428578
mp-761530,Fe(CoO3)2,-1.177510895277778
mp-1025235,Fe(CoSe2)2,-0.2631698063392857
mp-1212869,Fe(CuC6)2,1.9992391723333336
mp-672708,Fe(CuS)2,-0.3995119291250006
mp-1043501,Fe(GeO3)2,-1.8062287791666665
mp-626680,Fe(HO)2,-1.510463931948
mp-24993,Fe(IO3)3,-0.8824530974038473
mp-1103998,Fe(Mo3S4)2,-0.9178235381666668
mp-1225290,Fe(Mo3Se4)2,-0.4606006072499999
mp-1181634,Fe(MoO5)2,-1.104841757115385
mp-542189,Fe(MoS2)2,-0.9815667805357152
mp-1069054,Fe(NCl)2,0.8074474357439996
mp-1095055,Fe(NF2)3,-0.4593839414279998
mp-1224728,Fe(NiAs)2,-0.15445468933333284
mp-640147,Fe(NiO2)2,-1.2271988571428574
mp-673824,Fe(NiS2)2,-0.7897490080357149
mp-1025359,Fe(NiSe2)2,-0.2572446820535715
mp-1213097,Fe(O2F)2,-0.9994378992685721
mp-649683,Fe(PO3)2,-2.53315201936508
mp-557544,Fe(PO3)3,-2.5345894635393766
mp-31874,Fe(PO3)4,-2.39688747079832
mp-540145,Fe(PO3)5,-2.324387593545917
mp-1204434,Fe(PO4)3,-1.7566050619642866
mp-753614,Fe(PS3)2,-0.6058621409623015
mp-12466,Fe(PdSe)2,-0.2668267634375006
mp-1224752,Fe(ReO3)2,-1.8913343975
mp-10754,Fe(RhS2)2,-0.7906007251785719
mp-1078162,Fe(RhSe2)2,-0.3237655134821428
mp-771582,Fe(SO4)2,-1.822235412253788
mp-510588,Fe(SbO2)2,-1.778595194642857
mp-541194,Fe(SbO3)2,-1.9310254219444445
mp-770991,Fe(SbO3)4,-1.6881522226470589
mp-20767,Fe(SbS2)2,-0.5838902594642862
mp-510757,Fe(Se2O5)2,-1.223895630125
mp-1201086,Fe(SeO3)2,-1.290142794965278
mp-1181664,Fe(SeO3)3,-1.1952936151562492
mp-744274,Fe(Si2O3)2,-1.9916002761363645
mp-1043700,Fe(Si2O5)2,-2.775194885666666
mp-1203128,Fe(SiO3)2,-2.6379565908333333
mp-9198,Fe(SiP)4,-0.2836073376190471
mp-1197157,Fe(TeO3)2,-1.4641398427777774
mp-1197576,Fe(W3Cl7)2,-1.0519370924114273
mp-1192985,Fe(WCl5)2,-1.2576529209692309
mp-25537,Fe(WO4)2,-1.8918387831818184
mp-705555,Fe10O11,-1.7067550999404768
mp-780434,Fe10O11F9,-2.148944853982001
mp-777526,Fe10O19F,-1.525063122331334
mp-775287,Fe10OF19,-2.678174772628666
mp-36806,Fe11(NiO3)8,-1.4147617834883723
mp-601848,Fe11Co5,-0.05578020562500008
mp-571055,Fe11Mo6C5,0.006248957102272357
mp-1096767,Fe11MoC4,0.06562026031249958
mp-705417,Fe11O12,-1.694969427173913
mp-1225858,Fe11S12,-0.6857354729891321
mp-1225211,Fe11Si4(H4O9)3,-1.9672389992072217
mp-19800,Fe11Si5,-0.34572898749999936
mp-1225179,Fe12Ge3As2,-0.056322479117647074
mp-27908,Fe12N5,-0.1680463912882347
mp-764326,Fe12O13,-1.6631075078499995
mp-566646,Fe12PbO19,-1.7978353198046877
mp-1178589,Fe13(NiO10)2,-1.7108783819999993
mp-863767,Fe13(SnO10)2,-1.5297245785714284
mp-641526,Fe13Co3,-0.032836565000000206
mp-763652,Fe13Cu5O24,-1.5691761226190484
mp-601833,Fe13Ge3,-0.07416089531250059
mp-1213182,Fe13Mo9,0.0022822618181818784
mp-705414,Fe13O14,-1.3807997358333333
mp-767312,Fe13O15,-1.5705676206696435
mp-1195927,Fe13O19,-1.6040833798046883
mvc-9418,Fe13Si2(SbO14)2,-1.7660214163333332
mp-1226029,Fe14Cu7(PO4)18,-2.2708204103474907
mp-705749,Fe14Ni11O32,-1.3528849428070178
mp-764417,Fe14O15,-1.5421035271982764
mp-650055,Fe15(Ge2O9)4,-1.9610707943220336
mp-18695,Fe15Co,-0.0052391550000017145
mp-705551,Fe15O16,-1.6555539554838716
mp-705424,Fe17O18,-1.6875010366428584
mp-775380,Fe19(SiO4)12,-2.4542888177215194
mp-762884,Fe19Co5O32,-1.745614830000001
mp-643081,Fe2(CO)9,-0.6939181982500002
mp-763595,Fe2(CO3)3,-1.7723087776785726
mp-705435,Fe2(MoO4)3,-2.0271507786764715
mp-1172918,Fe2(PO3)5,-2.502164397021104
mp-540329,Fe2(PO4)3,-2.1632830062605044
mp-1224715,Fe2(PdAu)3,0.32617287749999946
mp-559859,Fe2(SO4)3,-2.0195410048345583
mp-1213661,Fe2(SO7)3,-0.5310586183052893
mp-567065,Fe2(Se2O5)3,-1.3770814382744572
mp-541297,Fe2(SeO4)3,-1.3360166638694857
mp-606023,Fe2(TeO3)3,-1.650681419553571
mp-1042761,Fe2(TeO4)3,-1.362600504705882
mp-1213596,Fe2(WO4)3,-2.0368615824264715
mp-641587,Fe21(MoC3)2,0.018052473362068857
mp-641595,Fe21(WC3)2,0.01176793301724227
mp-705638,Fe21HO32,-1.7495416858077788
mp-698680,Fe21Ni9O40,-1.5860678794285719
mp-706875,Fe21O23,-1.6995436156534085
mp-698578,Fe21O32,-1.1528701415094342
mp-1224794,Fe22B6W,-0.19444561862069115
mp-1224758,Fe23(BC)3,-0.06724808331896599
mp-542758,Fe23B6,-0.17366998862069127
mp-1192884,Fe23C6,0.04635208922413748
mp-705553,Fe23O25,-1.693412087109376
mp-776135,Fe23O32,-1.6362350232727274
mp-684887,Fe24N11,-0.15858493774799984
mp-1193426,Fe25Mo4,0.07396862517241379
mp-1194978,Fe25O32,-1.6506142561403505
mp-1178338,Fe25Si11O48,-2.3317613717857157
mp-565482,Fe2Ag(MoO4)3,-1.8829028463888884
mp-1191552,Fe2AgS3,-0.5938333545312512
mp-20426,Fe2As,-0.07197617166666721
mp-1212702,Fe2As2H2PbO10,-1.7177736541023534
mp-1197443,Fe2As2PbO10,-1.5714452208333332
mp-1224755,Fe2AsO4F,-2.000035840461252
mp-1224707,Fe2AsP,-0.3643319817857149
mp-1915,Fe2B,-0.3142600505555559
mp-1197728,Fe2B(PO4)3,-2.5480032265608483
mp-15722,Fe2B4Mo,-0.38899464095238095
mp-1194531,Fe2B7,-0.19043961074074087
mp-566717,Fe2BO4,-2.211334356666668
mp-1224738,Fe2BiSbO7,-1.5557229339772718
mp-1871,Fe2C,0.057131663750000186
mp-763661,Fe2C2O7,-1.757885792689394
mp-1181787,Fe2C4Cl2O9,-1.3000849554570588
mp-647840,Fe2C8SO10,-0.8299122992410717
mp-704688,Fe2C9(O4F)2,-0.7736687891014288
mp-629080,Fe2C9O7F4,-0.8484698124890919
mp-1199200,Fe2CO5,-1.3101216378125002
mp-1238907,Fe2Cl6O5,-0.3438089773700001
mp-1103030,Fe2ClO3,-1.3930252520016673
mp-1197332,Fe2Co(AsO7)2,-0.7907395446052627
mp-761762,Fe2Co(PO4)3,-2.280393934246032
mp-1212758,Fe2Co3H4(Se3O10)2,-1.4119767246012138
mp-778217,Fe2Co3O10,-1.1988424588333335
mp-1178389,Fe2Co3Sb3O16,-1.4791187852083345
mp-652793,Fe2Co4Ge2(CO)21,-0.7330240494500003
mp-542798,Fe2CoAs2(H5O7)2,-1.5626578778862068
mp-30044,Fe2CoGe,-0.014731223750000131
mp-1097158,Fe2CoIr,3.2500339625
mp-1103499,Fe2CoO4,-1.7405748528571436
mp-765888,Fe2CoO6,-1.3223863997222245
mp-1078104,Fe2CoSe4,-0.2434631577678579
mp-1207117,Fe2CoSi,-0.3616186250000011
mp-1181853,Fe2Cu(AsO7)2,-0.7929277877631582
mp-510036,Fe2Cu(P2O7)2,-2.389601281717687
mp-775240,Fe2Cu(PO4)3,-2.206001145912699
mp-1193267,Fe2Cu(PO5)2,-2.003621518119048
mp-1224745,Fe2Cu10Sb4S13,-0.4980518828556028
mp-1227624,Fe2Cu13(GeS8)2,-0.6030389896969699
mp-647427,Fe2Cu2Ge4O13,-1.812313248392857
mp-565549,Fe2Cu3(SeO3)6,-1.2979925287607756
mp-1225320,Fe2Cu3(Sn3Se8)2,-0.3017768702777777
mp-651268,Fe2Cu6SnS8,-0.6226860945588241
mp-1201149,Fe2Cu8P4O21,-1.773345225280611
mp-764827,Fe2CuAs2(HO5)2,-1.5748246432935298
mp-21141,Fe2CuGe2,-0.08066509100000019
mp-644277,Fe2CuH4(OF4)2,-2.125736353323529
mp-1224737,Fe2CuNiPt4,-0.1787060712499997
mp-770107,Fe2CuO4,-1.557388015714286
mp-1224742,Fe2CuRh3S8,-0.7841123587500007
mp-605485,Fe2CuS3,-0.6702119616145849
mp-20432,Fe2Ge,-0.0327273366666662
mp-24969,Fe2GeO4,-1.9595509007142853
mp-21086,Fe2GeS4,-0.6516542030357145
mp-705147,Fe2GeSe4,-0.12678888883928607
mp-1212917,Fe2H10Cl6O5,-1.3489412369352174
mp-1196332,Fe2H10S2O11,-1.582789947923
mp-766654,Fe2H11(SeO5)3,-1.3763420493339102
mp-744001,Fe2H13C6NCl2O11,-1.2014324624917159
mp-1194812,Fe2H14C8NO12,-1.087247136163784
mp-1213486,Fe2H2Se3O10,-1.4709209035600732
mp-1212847,Fe2H3F2,0.23447749453714245
mp-762039,Fe2H4O2F5,-2.124909082917692
mp-1199115,Fe2H6(SO5)3,-1.8044780771214413
mp-1178328,Fe2H6(SeO4)3,-1.4395813848913592
mp-770601,Fe2HgO4,-1.5064558121428564
mp-1184418,Fe2Ir2O5,-0.7523871129166674
mp-1097084,Fe2IrRh,3.2637513249999994
mp-1095682,Fe2Mo,0.004225670833334287
mp-504974,Fe2Mo3O8,-1.8409974726923082
mp-669355,Fe2Mo4C,-0.002457367678571489
mp-644758,Fe2Mo4N,-0.12564609105428662
mp-1181867,Fe2Mo4O7,-1.4978923295192297
mp-624052,Fe2MoC10(SeO5)2,-0.6553362396875002
mp-33537,Fe2MoO4,-1.8566034664285715
mp-28104,Fe2MoP12,-0.3712277755476199
mp-684744,Fe2N,-0.16330465745999986
mp-1198504,Fe2NF6,-1.907872026335556
mp-1191064,Fe2NO8,-0.8234014247618184
mp-1224697,Fe2Ni,0.04832790000000031
mp-19609,Fe2Ni(PO4)2,-2.2720721657142864
mp-774420,Fe2Ni(PO4)3,-2.236672231468253
mp-1212753,Fe2Ni3H4(Se3O10)2,-1.3435286831726427
mp-771051,Fe2Ni3P6WO24,-2.1934064425793647
mp-777420,Fe2Ni3Sb(PO4)6,-2.141550862996031
mp-1105860,Fe2NiB,-0.2067389216666662
mp-1189517,Fe2NiC,0.08047175531249984
mp-35596,Fe2NiO4,-1.6584899042857149
mp-571370,Fe2NiP,-0.385272019285714
mp-686717,Fe2NiSe4,-0.2421322506250009
mp-1190371,Fe2O2F5,-2.080672662605556
mp-763341,Fe2O3F,-1.851722587490001
mp-1178466,Fe2OF2,-2.2585887587259985
mp-1178468,Fe2OF3,-2.4557111453033333
mp-683792,Fe2Os(CO)12,-0.7635663628703703
mp-778,Fe2P,-0.4575208207142857
mp-1199047,Fe2P12W,-0.3500736972142865
mp-745200,Fe2P2H4NO8,-1.8843695235232785
mp-541954,Fe2P2H4O9,-2.08734763808916
mp-1238703,Fe2P2H6C2O13,-1.5907414751902291
mp-541027,Fe2P2H9NO11,-1.7888520494198286
mp-1202069,Fe2P2N2Cl2(O2F)3,-1.4321211474491595
mp-1201744,Fe2P2NO11,-1.3686379283072323
mp-510367,Fe2P2O7,-2.463370158457792
mp-1041062,Fe2P2O9,-2.099539933695054
mp-25692,Fe2P3(HO3)3,-1.9933031460905042
mp-1202233,Fe2P3(O3F)3,-2.612131483602857
mp-705041,Fe2P3C8N3(ClO2)4,-0.7328749635395917
mp-540498,Fe2P3O10,-2.4643100739285715
mp-697819,Fe2P3O13,-1.6073748029265873
mp-704946,Fe2P4Pb3O16,-2.4078295367428577
mp-1225206,Fe2P4Pb3O17,-2.2418951938392864
mp-24976,Fe2P4PbO14,-2.480524931717687
mp-1101584,Fe2P5O16,-2.4464434265527957
mp-1213220,Fe2PCO7,-1.9934794454220768
mp-565945,Fe2PClO4,-2.2251796638003576
mp-542770,Fe2PH2CO7,-1.9753687989909885
mp-1202411,Fe2PHO3F2,-2.254352510765873
mp-540870,Fe2PO4F,-2.481748613854108
mp-565515,Fe2PO5,-2.2910107279241068
mp-1224708,Fe2Pb(SeO3)4,-1.4985920247039477
mp-557298,Fe2Pb3F12,-2.744914347604705
mp-1224835,Fe2Pb3WO9,-1.8019686767499992
mp-1224694,Fe2Pd,0.07482650666666639
mp-1224692,Fe2Pt,0.2020946033333324
mp-1224702,Fe2PtRh,0.1234700799999997
mp-639789,Fe2Re3,-0.01682822199999805
mp-673875,Fe2RhS4,-0.7420914373214293
mp-1200296,Fe2S2O13,-1.0369517511397064
mp-1204346,Fe2S2O17,-0.6553219875892852
mp-952567,Fe2S3,-0.7819430304375004
mp-1213033,Fe2S3(NO6)2,-1.2681073326025
mp-1198915,Fe2S3O17,-1.1120323767471596
mp-1201595,Fe2S3O23,-0.6169425069977683
mp-849513,Fe2Sb(PO4)3,-2.3819241167460317
mp-1224691,Fe2SbTe3,-0.1382366491666668
mp-561440,Fe2Se2O7,-1.5366129415624992
mp-1225163,Fe2SeS,-0.27234063816406273
mp-22787,Fe2Si,-0.3744944616666679
mp-1207121,Fe2SiNi,-0.28903809250000023
mp-510587,Fe2SiO4,-2.427455420357142
mp-1024054,Fe2SiS4,-0.7362324473214292
mp-510164,Fe2Sn,0.19835918333333305
mp-775649,Fe2Sn(PO4)3,-2.3749110892460314
mp-675496,Fe2SnS4,-0.6171043758928576
mp-1225390,Fe2Te2(PbO4)3,-1.6726023081578945
mp-651724,Fe2Te2Ru2(CO)11,-0.7286277187499997
mp-1182492,Fe2Te2SO13,-1.309487755989584
mp-566216,Fe2Te2W(CO)10,-0.5956233702000009
mp-1213361,Fe2Te4BrClO10,-1.5149899522644448
mp-1188722,Fe2Te4ClO12,-1.394807754118948
mp-743878,Fe2Te4H3ClO12,-1.559717649732728
mp-1212800,Fe2Te4HClO12,-1.4613635618439993
mp-510266,Fe2Te4O11,-1.623565914338235
mp-649165,Fe2TeO5,-1.7381852820312496
mp-24967,Fe2TeO6,-1.7456668641666668
mp-1225136,Fe2TeSe,-0.12687618464843808
mp-624009,Fe2TeWC10SeO10,-0.6025592869437503
mp-20868,Fe2W,-0.025602911666669097
mp-504619,Fe2W2C,0.13330678591666847
mp-624463,Fe2WC10(SeO5)2,-0.6214772738875002
mp-25749,Fe2WO6,-2.0078273024999995
mvc-6284,Fe3(AsO4)4,-1.447744887608697
mp-1190714,Fe3(AsO8)2,-0.8166975599999998
mp-1226049,Fe3(BrO2)8,-0.39055852518518464
mp-532329,Fe3(CuS5)2,-0.7422608822083343
mp-651997,Fe3(GeO4)2,-1.987979966730769
mp-1193589,Fe3(Ni10B3)2,-0.19891844344827456
mp-780091,Fe3(O2F)2,-1.9669051458200002
mp-767081,Fe3(OF)2,-2.0835703299828574
mp-779933,Fe3(OF2)2,-2.367382950806667
mp-778552,Fe3(OF3)2,-2.3350245822399995
mp-1104355,Fe3(OF4)2,-2.09378322630923
mp-565653,Fe3(P2O7)2,-2.4906929827891156
mp-31877,Fe3(P3O10)2,-2.4367469611330046
mp-636647,Fe3(PO4)2,-2.385315270906593
mp-31818,Fe3(PO4)4,-2.2079446877639746
mp-1194229,Fe3(PO5)2,-2.199706997452381
mp-1181366,Fe3(PO6)2,-1.7224506393697478
mp-1195420,Fe3(PO8)2,-1.2152945568707492
mp-1225204,Fe3(Se2S)2,-0.5182025369444447
mp-31859,Fe3(SiO4)2,-2.4721730757692297
mp-754767,Fe3(SnS4)2,-0.7268397801923083
mp-566653,Fe3(TeO3)4,-1.6508114785526318
mp-1225420,Fe3(WN2)4,-0.43311191060266574
mp-1178315,Fe31Si5O48,-2.0451920523809526
mp-863766,Fe32O35,-1.6888692018470148
mp-694910,Fe35O36,-1.6059517183802818
mp-762943,Fe35SiO48,-1.851199851309524
mp-705753,Fe38O39,-1.6797428327110402
mp-1178317,Fe39Si3O56,-1.9183007121428568
mp-1184230,Fe3Ag,0.3410750949999999
mp-1225504,Fe3Ag(SnS4)2,-0.6887242123214291
mp-1204059,Fe3Ag7(P2O7)4,-2.066414880916148
mp-1184272,Fe3Au,0.13723275749999966
mp-1181439,Fe3B7BrO13,-2.5396954628298603
mp-566887,Fe3B7ClO13,-2.586590210465696
mp-1194881,Fe3B7IO13,-2.5089016013715284
mp-510551,Fe3BO5,-2.1236736708796293
mp-25746,Fe3BO6,-2.1000943599166675
mp-510623,Fe3C,0.05097771843749932
mp-648633,Fe3C10SO10,-0.6389368225651033
mp-704545,Fe3C10SeO10,-0.6036737080664061
mp-1228683,Fe3C7O19,-0.963997428275862
mp-648167,Fe3C8(Br2N)8,0.05077855288457158
mp-654299,Fe3C9(SO5)2,-0.7000856555989579
mp-652326,Fe3C9S2O9,-0.6499301438315214
mp-629560,Fe3C9Se2O9,-0.5826425374864135
mp-1201021,Fe3C9SeSO9,-0.5900173075067933
mp-601820,Fe3Co,-0.04504455250000028
mp-1181596,Fe3Co(BiO3)4,-1.6325192767500003
mp-775516,Fe3Co(PO4)4,-2.319101549523809
mp-762161,Fe3Co2Cu(PO4)6,-2.1789100384126985
mp-762056,Fe3Co2Ni(PO4)6,-2.158635213968253
mp-769471,Fe3Co2P6WO24,-2.35228702952381
mp-763277,Fe3Co2Sb(PO4)6,-2.316383616607144
mp-762193,Fe3Co2Sn(PO4)6,-2.3160367082738094
mp-997541,Fe3Co2Te(PO4)6,-2.2528009784126986
mp-761701,Fe3Co3(SbO8)2,-1.4730754212499992
mp-761932,Fe3Co3(TeO8)2,-1.4215410033333324
mp-1225207,Fe3Co3B2,-0.2230077641666668
mp-1225391,Fe3Co3Ge2,-0.0412872037500005
mp-1225227,Fe3Co3Si2,-0.3662551424999991
mp-769678,Fe3Co5O16,-1.1951435154166674
mp-778275,Fe3Co7O20,-1.1708885315000004
mp-1225696,Fe3CoBi4(AsO6)4,-1.5924606822222218
mp-763121,Fe3CoCu2(PO4)6,-2.1335173423015865
mp-1212650,Fe3CoN,0.09549281952400007
mp-770497,Fe3CoNi2(PO4)6,-2.16999050202381
mp-1178300,Fe3CoSb2(PO4)6,-2.3074048320238094
mp-1225131,Fe3Cu,0.06875421250000002
mp-775191,Fe3Cu(PO4)4,-2.2619763632738104
mp-1225264,Fe3Cu(SnS4)2,-0.7122652858928576
mp-776055,Fe3Cu2Sb(PO4)6,-2.245720544107143
mp-775965,Fe3Cu2Sn(PO4)6,-2.2451165627182537
mp-776831,Fe3Cu2Te(PO4)6,-2.1899199917460326
mp-1225133,Fe3CuAs2,0.05178966333333316
mp-767442,Fe3CuNi2(PO4)6,-2.131581433968253
mp-1184279,Fe3F,0.3767052459524996
mp-20711,Fe3Ge,-0.10079498125000086
mp-1225197,Fe3Ge2,-0.07525731600000114
mp-984102,Fe3H,0.5776043765949996
mp-40778,Fe3H10S2NO14,-1.6143392654734998
mp-1202481,Fe3H28(S2O15)2,-1.614353366078615
mp-743794,Fe3H4(OF4)2,-2.2761281715588217
mp-743859,Fe3H4(S2O9)2,-1.8884098849389648
mp-634187,Fe3H6C6(N3Cl4)2,-0.4365661011924133
mp-1224975,Fe3H9S2O15,-1.6989819725674131
mp-985475,Fe3Mo,0.08251624374999977
mp-1193060,Fe3Mo3C,-0.033647719821429084
mp-510619,Fe3Mo3N,-0.18826694426857066
mp-1225023,Fe3Mo5N8,-0.4236196961900003
mp-1224938,Fe3Mo6PdN2,-0.16766695789666505
mp-1224884,Fe3Mo6PtN2,-0.22608552331333226
mp-1224957,Fe3Mo6RhN2,-0.18893803623
mp-683831,Fe3MoC11SeS3O11,-0.6482343273593756
mp-1212814,Fe3NF9,-2.1811603167761544
mp-1224780,Fe3Ni,0.009449635000000178
mp-1225027,Fe3Ni(Mo3N)2,-0.2258332062299999
mp-775017,Fe3Ni(PO4)4,-2.2665536586904764
mp-1225009,Fe3Ni2,-0.03339988500000004
mp-851295,Fe3Ni2P6WO24,-2.3278140300793653
mp-776916,Fe3Ni2Sb(PO4)6,-2.2929406624404773
mp-775990,Fe3Ni2Sn(PO4)6,-2.285645892718255
mp-776920,Fe3Ni2Te(PO4)6,-2.2279022203571426
mp-1224887,Fe3Ni3B2,-0.21181278604166653
mp-1225085,Fe3Ni3Ge2,-0.07974039750000017
mp-1224865,Fe3Ni3P2,-0.3881186442857141
mp-1224927,Fe3Ni3Pt2,0.05442811874999976
mp-1224770,Fe3NiAs4,-0.2380809125000001
mp-1224768,Fe3NiAs8,-0.2566521333333327
mp-567703,Fe3NiN,-0.13112366447599869
mp-1224771,Fe3NiP4,-0.5672414823214282
mp-1178301,Fe3NiSb2(PO4)6,-2.2918225714682543
mp-1224765,Fe3NiSb8,-0.07427106666666579
mp-776887,Fe3NiSn2(PO4)6,-2.322097197301586
mp-1184320,Fe3O,0.4646609584375003
mp-19306,Fe3O4,-1.84005894
mp-851260,Fe3O5F,-1.7066249047155553
mp-779987,Fe3OF5,-2.5484579174666657
mp-1178324,Fe3OF7,-2.5283550422345447
mp-1194393,Fe3OF9,-2.3768465686123075
mp-18708,Fe3P,-0.3593462592857133
mp-745134,Fe3P2(H2O3)4,-1.914953237329829
mp-742859,Fe3P2(HO)16,-1.7289149795190732
mp-1212790,Fe3P2(HO)8,-1.353602804916462
mp-744206,Fe3P2H3O11,-2.090034807968196
mp-1213504,Fe3P2H3O8,-1.702536756102857
mp-1182551,Fe3P2H6O11,-1.9807284747616232
mp-1204155,Fe3P2O9,-2.2475793168239804
mp-1188752,Fe3P2PbO14,-1.6436704605892856
mp-1201707,Fe3P3H12C2N2O13F2,-1.5335873413042849
mp-540050,Fe3P3O11,-2.4195750803046217
mvc-11637,Fe3P3O13,-2.205269506193608
mp-1198984,Fe3P3PbO13,-2.3721443168839285
mp-1203127,Fe3P4(H3O5)4,-1.971349559282345
mp-1101558,Fe3P4O15,-2.344871320900974
mp-1204465,Fe3P4PbO14,-2.4727171300487005
mp-775004,Fe3P6WO24,-2.324392685378152
mp-743549,Fe3P8H26NO36,-1.7582040795086868
mp-1204574,Fe3P8O37,-0.9984296355915172
mp-735523,Fe3PH6PbSO14,-1.8847407890548216
mp-18775,Fe3PO7,-2.1434426091720784
mp-704755,Fe3PWC15BrO15,-0.6474315470039677
mp-1189324,Fe3Pb(SO7)2,-1.5332941712812498
mp-1212776,Fe3Pb4BrO8,-1.5828449081249998
mp-630866,Fe3Pb4ClO8,-1.64338690332875
mp-1213069,Fe3Pb5F19,-2.7460043152818523
mp-735822,Fe3Pb8F24,-2.7236461345302865
mp-1224754,Fe3Pd,0.05088680499999931
mp-16334,Fe3PdN,-0.20433062047599865
mp-1649,Fe3Pt,-0.08371762750000045
mp-579496,Fe3PtN,-0.2615133484759994
mp-865212,Fe3Re,-0.010160490625001016
mp-1184364,Fe3Rh,-0.0240818650000012
mp-1225191,Fe3Rh3S8,-0.7656325423214291
mp-580234,Fe3RhN,-0.15271064647599958
mp-1184373,Fe3S,-0.010754177265625664
mp-1181637,Fe3S2O15,-1.1881972783437504
mp-21515,Fe3S4,-0.7548353737500011
mp-1184324,Fe3Sb,0.08159618000000002
mp-775128,Fe3Sb(PO4)6,-2.2340213525840333
mp-1194355,Fe3Sb2(BrO)4,-1.3587575400000005
mp-1199909,Fe3Sb5(IO3)3,-1.5144482895625004
mp-1184256,Fe3Se,0.3997371078515624
mp-1201589,Fe3Se3O10,-1.393099735830079
mp-2780,Fe3Se4,-0.2253214877678573
mp-1225224,Fe3Si2Ni3,-0.31552626749999924