task_id,composition,formation_energy_per_atom
mp-1184561,Ge3As,0.3418777425000004
mp-569600,Ge3As4,0.0053036464285714895
mp-1184646,Ge3Au,0.2383238612500005
mp-976080,Ge3B,0.9856307683333334
mp-29218,Ge3Bi2O9,-1.9875170861607143
mp-973155,Ge3C,1.3937887803125006
mp-29688,Ge3Cl8,-1.2746574716890908
mp-976783,Ge3F,-0.4786521927974996
mp-1190647,Ge3F8,-2.564144726774545
mp-1184556,Ge3H,0.5190768790950009
mp-1184667,Ge3Ir,0.20591888125000052
mp-1197434,Ge3Ir2S3,-0.3839509349609376
mp-975924,Ge3Ir2Se3,-0.4662631754101562
mp-1184671,Ge3Mo,0.4305221837500008
mp-17094,Ge3Mo5,-0.10333558750000016
mp-18021,Ge3Mo5C,-0.06902761763888697
mp-971694,Ge3N2,-3.550295199943321e-05
mp-672289,Ge3N4,-0.26065806993142865
mp-1212692,Ge3NO6,-1.3762948506130002
mp-1184665,Ge3O,0.07607579093749982
mp-1184652,Ge3Os,0.4761547375000008
mp-16610,Ge3Os2,-0.07373354199999937
mp-973157,Ge3P,0.4326955507142856
mp-1224661,Ge3P6H42N12O25,-1.3596134820421264
mp-680143,Ge3Pb11O17,-1.6995534031586024
mp-1181737,Ge3Pb3O10,-1.5167376848437495
mp-557340,Ge3Pb5O11,-1.8568984290570176
mp-1212615,Ge3Pb5O12,-1.7303984059999995
mp-29217,Ge3PbO7,-2.0312503847727275
mp-1184682,Ge3Pd,0.07179545625000028
mp-1184728,Ge3Pt,0.06650197875000075
mp-542587,Ge3Pt2,-0.4157651324999989
mp-973883,Ge3Rh,0.09980828374999984
mp-1199965,Ge3Rh2S3,-0.7917032274609381
mp-976401,Ge3Rh2Se3,-0.5072453691601568
mp-624221,Ge3Rh5,-0.4729586243749999
mp-21945,Ge3Ru2,-0.35209784925000065
mp-17708,Ge3Sb2O9,-1.9958146872321443
mp-976053,Ge3Te,0.35541389625
mp-1224326,Ge3Te2Se,-0.1011663639322915
mp-1224516,Ge3Te3Ir2,-0.14630289624999993
mp-489,Ge4Ir,-0.1694907139999998
mp-559373,Ge4PbO9,-2.038435840089286
mp-1104286,Ge4Rh,-0.1916581606666664
mp-680333,Ge4Se9,-0.24195655421875
mp-568730,Ge4Te7As2,-0.05478776923076858
mp-28487,Ge5(Te4As)2,-0.04887625900000027
mp-27342,Ge5F12,-2.5185634331929414
mp-541844,Ge5Ir4,-0.33978894499999984
mp-1224586,Ge5O11,-1.6497554980468747
mp-18049,Ge5P6O25,-2.4350842466418654
mp-1224356,Ge5Te4Se,-0.04669822035937514
mp-675004,Ge6Bi7O22,-1.8215826097857144
mp-1201671,Ge6C4NO13,-0.9279788965054164
mp-1237991,Ge7(H2O11)2,-1.1114210523327277
mp-29500,Ge7F16,-2.4872305458278263
mp-1181734,Ge7H18O23,-1.6454626937272916
mp-857343,Ge7H8N2O15,-1.671603879452186
mp-1224666,Ge7HN3O20,-0.3699095308309684
mp-1193690,Ge7HO20,-1.0759893631650002
mp-505780,Ge7Ir3,-0.2638888259999995
mp-1196708,Ge7N2O15,-1.58375355077125
mp-1191730,Ge7O16,-1.6760179967391295
mp-1181291,Ge7O23,-0.8175528944583335
mp-582201,Ge8Pd21,-0.4791161056896556
mp-685371,Ge9(Sb5Te12)2,0.0006658780232562338
mp-15843,Ge9Pd25,-0.4533814775000008
mp-29249,GeAsSe,-0.1752166411979168
mp-1224396,GeAsW,-0.028714986666666206
mp-1184584,GeAu3,0.06252301125000015
mp-1184565,GeB,0.5476594616666661
mp-973738,GeBO3,-1.0260733790833334
mp-23446,GeBi2O5,-1.878644315156249
mp-973623,GeBi3,0.2578762825000003
mp-29644,GeBi4Te7,-0.2037934937500001
mp-1204733,GeBiH8C2S4N,-0.509931255887648
mp-1195356,GeBiNO7,-1.126808844112999
mp-1184562,GeBiO3,-1.4606195447500006
mp-1224414,GeBiPd6,-0.2661950400000004
mp-541610,GeBr2,-0.576134454583333
mp-571246,GeBr4,-0.6375421315000004
mp-1002164,GeC,0.4363344581250006
mp-1195014,GeC4(BrF5)2,-1.5765906039352942
mp-1181268,GeC4NCl3,0.9077215394822225
mp-30086,GeCl4,-1.3998420611079996
mp-989197,GeClF,-1.653361876483334
mp-557432,GeClO2F5,-1.8974557224122224
mp-7595,GeF2,-2.4086216524599995
mp-9816,GeF4,-2.7095270979520008
mp-695936,GeH10(N2F3)2,-1.341717995374285
mp-1205224,GeH10Se3N4,-0.3613328053611803
mp-707881,GeH12(NF2)4,-1.4382470579992002
mp-28369,GeH3Cl,-0.38617158782399946
mp-1205379,GeH4,-0.007269802895999789
mp-995236,GeH6CI3N,-0.4229403475291657
mp-703461,GeH8N2OF6,-1.6459119656727783
mp-23266,GeI4,-0.2871157114999999
mp-208,GeIr,-0.3115181174999995
mp-494,GeMo3,-0.1323794512499994
mp-1224404,GeMoAs,-0.16860457333333306
mp-1189677,GeN2F5,-0.5224573038387499
mp-1079742,GeN2OF6,-0.3064775228149997
mp-1196527,GeN3F7,-0.6463444259518183
mp-1224374,GeNCl3,0.11688291656800018
mp-648843,GeOs2C8(ClO2)4,-1.0815419785379714
mp-1212495,GeP2,0.08621174607142852
mp-28883,GeP2O7,-2.4983578298035716
mp-7542,GeP3,0.026572183392857163
mp-1189190,GePClO2,-1.6093681555805717
mp-1197913,GePb(S2O7)3,-1.9054338779525863
mp-1198509,GePb2(SeO3)4,-1.4950143402302634
mp-1184782,GePb3,0.14541330625000048
mp-559144,GePb3O5,-1.7389989106944452
mp-583345,GePb5O7,-1.6559243868269231
mp-554699,GePbO3,-1.9442848970833333
mp-624190,GePbS3,-0.8320028204375006
mp-1424,GePd,-0.4575263649999997
mp-423,GePd2,-0.5383909616666666
mp-1184557,GePdO3,-0.9511153637500002
mp-541785,GePdS3,-0.7505220724374994
mp-542640,GePt,-0.4752825424999996
mp-16315,GePt3,-0.32033802124999955
mp-1101755,GePtS,-0.8108233071874995
mp-20817,GePtSe,-0.5561073753645829
mp-22585,GeRh2,-0.4627556125000005
mp-1184788,GeRh3,-0.2228071387500004
mp-1025397,GeRu,-0.28077917625000026
mp-9935,GeSb,0.13850727499999935
mp-1199720,GeSb2H16C4(S3N)2,-0.4715216110340322
mp-1184683,GeSb3,0.2953203137499996
mp-29641,GeSb4Te7,-0.11863322541666695
mp-1224339,GeSbTe3,-0.07336990599999993
mp-938,GeTe,-0.09100323749999983
mp-1224368,GeTe(PbSe)2,-0.3791336736979159
mp-1224318,GeTe2Pb,-0.16903997874999988
mp-1224448,GeTe4Pb3,-0.2832269293750005
mp-1224514,GeTe5Pb4,-0.3161196955000001
mp-8645,GeTe7As4,-0.01550386624999985
mp-1184641,GeTeO3,-1.0320971497499998
mp-1224373,GeTePt,-0.43898359583333263
mp-607818,GeTeRh,-0.493936663333334
mp-704542,GeW2C10(BrO5)2,-0.7235159823000004
mp-770711,GeWO4,-1.9577072691666664
mp-556130,GeXeF10,-1.5991586270333331
mp-976247,H(C3N2)4,0.3907811713019033
mp-23680,H(CO)2,-0.9350826862239998
mp-690112,H(WO3)2,-1.6824588929022215
mp-1224441,H(WO3)4,-1.9189603666835304
mp-1212613,H10C2N12O5,-0.5107350199486208
mp-697408,H10C2N2O5,-1.127964004721578
mp-567221,H10C3IN,-0.34415815532200045
mp-554568,H10C3NClO,-0.4638404966775002
mp-560498,H10C3NClO4,-0.4861401527942101
mp-558354,H10C3S3N,-0.3746260939422056
mp-708184,H10C5S2N2(O2F3)2,-1.0542942833612066
mp-600217,H10C5SeS2BrN3,-0.2266893132413056
mp-600205,H10C5SeS2N3Cl,-0.2629401560031242
mp-1213275,H10PdC2S2(N4O3)2,-0.6215016723574144
mp-604702,H10PtC(N4O)2,-0.4093053034768184
mp-707020,H10S(NO)4,-0.9180642527517104
mp-706982,H10S(NO2)2,-1.1361379447072062
mp-24118,H10SO8,-1.5231848879085523
mp-774848,H10SeO8,-1.3156483878838812
mp-560961,H11C10NO8,-0.7437364440733328
mp-560323,H11C4NO10,-1.3175460457576913
mp-1224477,H11I(NO3)2,-0.9357157003540004
mp-28125,H11NF8,-1.6907896199609995
mp-32854,H11O8,-1.1296793934115783
mp-850378,H11S2N3O7,-1.2489440512536951
mp-697715,H12AuC4N,-0.16731764698999996
mp-1194821,H12C2S(NO2)2,-0.9061931525482144
mp-554928,H12C3NF3,-0.8524241738494731
mp-722329,H12C4IN,-0.3082028597677772
mp-1195695,H12C4IN(OF)2,-0.6150866245772719
mp-554527,H12C4INO3,-0.4357961562890472
mp-1225208,H12C4N2O9,-1.2149090537759253
mp-24767,H12C4NClO4,-0.4397374173445456
mp-1224979,H12C4S2BrNO,-0.3678205721521429
mp-677337,H12C4S3(N3Cl2)2,-0.3502523859637073
mp-1195839,H12C4Se(NO)2,-0.3192137744901779
mp-1204113,H12C4Se3Br6N,-0.2776030649173556
mp-554659,H12C5N2O,-0.3644897041599997
mp-1196283,H12C71F4,0.11494441035114995
mp-720382,H12Cl2O13,-1.0971907974522224
mp-738695,H12OsC4N(OF)3,-0.8214228480474991
mp-1203119,H12OsC4NO4F,-0.6978494563917385
mp-24461,H12OsN5Cl3O,-0.7858791646077272
mp-1197750,H12OsSN4O7,-0.919456111730899
mp-1120805,H12PbC2(I3N)2,-0.41061755133478256
mp-557822,H12PbC4S4(NO4)2,-0.8771362020790305
mp-1212614,H12PbN3Cl5,-0.9658434124704762
mp-721713,H12Pd(I2N)4,-0.4428992657183993
mp-557991,H12Pd(N5O4)2,-0.6224178650722585
mp-1198297,H12PdC2(N3Cl2)2,-0.6941362636303989
mp-1212673,H12PdC4(NO5)2,-1.1997801436448259
mp-850513,H12PtC6(N3O4)2,-0.9105877922793943
mp-722864,H12PtN6(ClO3)2,-0.8362056789533335
mp-555813,H12RhC8NO6,-0.6999750492257145
mp-698381,H12RuC4S2N2Cl2O5,-0.6532809239855351
mp-773113,H12RuSN4(ClO)2,-0.8861316847064771
mp-570642,H12W3C4NCl9,-0.7001945269020686
mp-601871,H12W3C4S2Cl9O2,-0.6480169314345314
mp-1198207,H12WC2(S2N)2,-0.567173337592857
mp-743584,H12WN3(OF)3,-1.2016397864954536
mp-745199,H12WN3O3F5,-1.2859379662616677
mp-605048,H13(C5N)2,-0.1599041829227997
mp-1238661,H13C2Cl2O8F,-0.9533627314334614
mp-708997,H13C3NF4,-0.9520999175214276
mp-554840,H13C4NF2,-0.6184301460910007
mp-720861,H13ClO6,-1.337942032016
mp-1203926,H13RuC6SN4O8F9,-1.331916891163154
mp-1196664,H13RuN5(ClO)2,-0.8116502131730441
mp-541932,H13S2N3O8,-1.2931786170124997
mp-1225464,H13Se2N3O8,-0.9971134788995192
mp-1202436,H14C3NCl5,-0.6027705602439125
mp-561300,H14C3NF5,-1.0375087087069566
mp-601774,H14C4NF3,-0.7515188212104541
mp-556451,H14C5(NO)2,-0.5307503463778265
mp-557333,H14C5(SN)2,-0.3191020180354353
mp-1200704,H14C5SN3ClO2,-0.5499283069285573
mp-561074,H14RhC6NClO4,-0.6941109135674066
mp-722271,H14RuS2(N2O3)2,-1.0407428039194448
mp-1238354,H14Se2N3O8,-0.9312131605558326
mp-1203988,H15PdRuN9O11,-0.8562938244451351
mp-706632,H15RhBr3N5,-0.6481982660916662
mp-1238563,H16AuC12S2N3O4,-0.4196064404785527
mp-705526,H16AuC6S2N4ClO4,-0.4233861281272056
mp-558970,H16C3NF7,-1.1670680875881485
mp-1197449,H16OsC4S4Br8N8O3,-0.3111025118627275
mp-766411,H16PdC4S4(N4Cl)2,-0.5659828084208568
mp-1212583,H16PdC4S4(N5O3)2,-0.6275266712309753
mp-684919,H16PtC4(NCl3)2,-0.6029509619737928
mp-866658,H16RhN5(Cl2O)3,-0.9024828455848384
mp-721049,H16RhN5(ClO4)2,-0.6735043509793748
mp-758573,H16Ru3C6(Cl3O7)2,-1.203560680499555
mp-1201498,H16S(N3O5)2,-1.0486515368564384
mp-1182775,H17RuN6Cl3O2,-0.5546897207965512
mp-1212573,H17RuN6ClO3,-0.7710650990296415
mp-1195210,H18IrC6S3(ClO)3,-0.5696191358346325
mp-559034,H18PbC6S4N2O9,-0.8084047018730004
mp-1194707,H18RhC4N7O8,-0.6194002934689474
mp-759409,H18RuC6(SCl)3,-0.4560568957944354
mp-706304,H18RuC6S3N3ClO3,-0.4732826984713565
mp-720397,H18RuN5(ClO)2,-0.7409191926278582
mp-31373,H18SO12,-1.4732353707813703
mp-1197142,H18Se3(NO3)4,-1.009548805282737
mp-1203177,H18WC6,-0.10676439705640008
mp-1203308,H19C6N7O4,-0.6941432596649998
mp-766262,H20C3(N2O5)2,-1.1812775932613513
mp-709027,H20RuC6NO14,-1.1585447126138095
mp-1224778,H20SN8O13,-1.022957473732202
mp-759161,H21C6N2Cl3,-0.4688900040018744
mp-1200273,H21C7S3N3O8,-0.6910046780737491
mp-709068,H21OsC9NO7,-0.5930438419461538
mp-707910,H22C10O3,-0.4965595530254282
mp-698362,H22IrC3(N3O4)2,-0.9757637140042498
mp-1237358,H22Pt2C6SO6,-0.464900441991959
mp-600156,H22RhC3(N3O4)2,-0.9831958098167504
mp-695295,H22RuN7(ClO2)4,-0.5023404441509529
mp-1204531,H23RuS2N5ClO12,-1.1060182686714768
mp-1201227,H24AuC16S2N3O4,-0.3534260153429
mp-707249,H24C8S(NO2)2,-0.5379544863000638
mp-677203,H24C8Se(NO2)2,-0.4398170993649677
mp-555945,H24OsC8(NF3)2,-0.6831966781409761
mp-707284,H24PdC8(NCl2)2,-0.4306724743507697
mp-698446,H24PtC8(NF3)2,-0.6588919494824395
mp-738597,H24RuC7S3NCl3O4,-0.5886595119180817
mp-605665,H24RuC8(S2Cl)2,-0.4063236574910266
mp-1199286,H25C8IN2(OF2)2,-0.6224306138695241
mp-707822,H26Os2N12Cl4O9,-0.8281355307918867
mp-1195183,H26Pd4Pt(C11O8)2,-0.6891444574872462
mp-1195390,H26Pd5(C11O8)2,-0.6911280142988403
mp-1196498,H27C9S2N3O5,-0.6118019400653258
mp-849764,H28Pt2Br5N9O2,-0.6647097770169567
mp-850221,H28RuS2(N3O5)2,-1.0651498558779786
mp-1196105,H29Pd3S3N9O10,-0.9619712873349544
mp-985782,H2C,-0.26997050116333315
mp-24332,H2C(NO)2,-0.5892170908214283
mp-707727,H2C2N2O,-0.4761747786785711
mp-1096982,H2C2S,0.7272850802394999
mp-723065,H2C2S3N2(OF)6,-1.4922050643489275
mp-995217,H2C3,-0.045576955698000174
mp-698476,H2C3(N2Cl)2,-0.3550944965481826
mp-1212515,H2C3N2O3,-0.9625081981999998
mp-1212621,H2C3NClOF4,-1.282383054803334
mp-559232,H2C3O4,-1.1017733534433325
mp-1224461,H2CBrCl,-0.3435857398499998
mp-30094,H2CN2,-0.24768209964999954
mp-625082,H2CO,-0.7665893430599997
mp-558412,H2CO2,-1.2397954876979989
mp-1001080,H2CO3,-1.5830859257900003
mp-709098,H2CS3,-0.2803462182379164
mp-995221,H2CSO4,-1.265620529381562
mp-1212399,H2INO2,0.3348321708966673
mp-28349,H2NO2,-0.8810869531740003
mp-697111,H2O,-1.3908334936633324
mp-28015,H2O2,-0.9570745005599992
mp-600347,H2Os3(CO)10,-0.9044641640895996
mp-1203196,H2Os3C8(SO4)2,-0.9428718839289136
mp-740758,H2Os4Pt(CO)15,-0.9004404318172982
mp-707849,H2Os5(CO)16,-0.9140740298010251
mp-28475,H2Pb3O4,-1.4486857638599997
mp-734875,H2Pb4C(Cl3O2)2,-1.5907750367970592
mp-697676,H2Pb4SO8,-1.7044621924201673
mp-1212238,H2PbCl2O7,-0.9852002777091666
mp-690727,H2PbO2,-1.254717029447999
mp-1201925,H2Pd(S2O7)2,-1.6685678421900008
mp-1224648,H2PtPbI6O19,-0.9382962486548282
mp-706921,H2RhN2Cl5O,0.09812925958636433
mp-707792,H2Ru3C8SO8,-0.921621363771326
mp-721193,H2Ru4(CO)13,-0.9089146338200004
mp-720808,H2Ru6(CO)17,-0.8838511195771419
mp-720807,H2Ru6C18SO20,-1.017932801144733
mp-758659,H2RuC3(ClO2)2,-1.1822711758341669
mp-711343,H2RuC8S3N(ClO)3,0.4869848434958335
mp-1205123,H2RuN2Cl5O,0.030762310268181506
mp-696805,H2S,-0.4718951771008335
mp-707293,H2S2O7,-1.6108367918513629
mp-625475,H2SO4,-1.6872341294717847
mp-1197484,H2SO5,-1.4397310590690615
mp-696482,H2SeNO4,-0.7818833574850519
mp-27996,H2SeO3,-1.2747336015972917
mp-23866,H2SeO4,-1.1588235576191066
mp-1095432,H2W,0.19381972675333373
mp-625571,H2W2O7,-1.9116647073627282
mp-32543,H2WO4,-1.8003086017485703
mp-626865,H2WO5,-1.5325361204362506
mp-31374,H30S2O21,-1.47805830062217
mp-571170,H32RuC8N4Cl7,-0.5449609870803852
mp-568081,H32WC8N4Cl7,-0.5574401565034611
mp-30168,H34C19,-0.2475045588552829
mp-1194995,H36Pb3C10(I5N2)2,-0.4339166044022217
mp-569084,H3AuC2NCl,-0.2326875504999997
mp-625521,H3BrO,-1.021901421422001
mp-1212579,H3C3N5,-0.3161173054781805
mp-1212587,H3C8N2Cl3O2,-0.4412140229388876
mp-1078197,H3CBr,-0.2629460409220002
mp-1194166,H3CBrClF,-0.5697101430799998
mp-1078233,H3CCl,-0.4602179785739999
mp-1181198,H3CI,-0.18925752892199985
mp-1194227,H3CO3,-1.401659285837143
mp-559204,H3CS,-0.35496996298449945
mp-644221,H3CSClO,-0.7209870850975
mp-558736,H3CSN(ClO)2,-0.6456488510072503
mp-706559,H3CSN2,-0.2089988001332149
mp-1195326,H3CSNOF2,-0.9658862474647221
mp-1199075,H3CSO3,-0.8776295817090629
mp-24357,H3CSO4F3,-1.7085714649785426
mp-34078,H3ClO,-1.2335532420739994
mp-27694,H3ClO5,-0.9475293400411108
mp-983357,H3F2,-1.4794259936479996
mp-27855,H3I3N2,-0.04734148320250009
mp-29145,H3N,-0.5416122183100001
mp-1200750,H3NCl,-0.74293208255
mp-626543,H3NO,-0.7713206648979998
mp-626256,H3NO4,-1.1696763254049998
mp-27714,H3OF,-1.6394602161599998
mp-707931,H3Os4C12ClO12,-0.9141253727849996
mp-1198041,H3Os4C12IO12,-0.8788933925268747
mp-973786,H3Pb,0.660757028535
mp-977011,H3PbCI3NF3,-1.019590166296667
mp-722351,H3PbS2N3,-0.34028087901388915
mp-1224413,H3Pd4,-0.1356524422657144
mp-977343,H3Pt,0.3802189685349999
mp-707771,H3Ru3C10ClO9,-0.8063614711680753
mp-731160,H3Ru3Rh(CO)12,-0.8756541584148383
mp-1195198,H3S,-0.37507972810562507
mp-721279,H3SNO3,-1.3304782774753123
mp-720765,H3SNO4,-1.2771383858113892
mp-24463,H3SO4F,-1.7550001492902776
mp-1202649,H3Se2NO6,-0.6079247510772922
mp-1079923,H3W,0.09319662728499978
mp-1202135,H48PtC32S4(N3O4)2,-0.35922000448777736
mp-773991,H48PtW6C8(NO)24,-0.9742991483863058
mp-23675,H4BrN,-0.7130201503099999
mp-1021328,H4C,-0.37697105864599934
mp-707535,H4C(N2O)2,-0.5423754845681809
mp-1212607,H4C(N3O)2,-0.4141090951930769
mp-1189886,H4C2NO2,-0.8242846990955555
mp-995219,H4C2O,-0.5420101756399995
mp-1212588,H4C2SN4,-0.35302021596022704
mp-995218,H4C5O2,-0.522425465975454
mp-995204,H4C6O,-0.2167969359754548
mp-1097016,H4C7,-0.039146686808787
mp-30184,H4C7O,-0.21897810662333347
mp-23778,H4CN2O,-0.7939452361550003
mp-1237215,H4CN4O,-0.5043219231499997
mp-1201465,H4CN4O3,-0.5044267168958333
mp-696231,H4CN5Cl,-0.3733728034899997
mp-1200372,H4CS(NO)2,-0.9174618192052492
mp-721301,H4CS(NO)3,-0.7087577296402081
mp-1238470,H4CSIN2,-0.4424748210613885
mp-23930,H4CSN2,-0.4877082043190626
mp-720300,H4CSN2Cl,-0.6033756851736116
mp-28281,H4I3N,-0.4754618361699996
mp-1236902,H4I3NO9,-0.7674023169476477
mp-643062,H4IN,-0.6168844961433338
mp-24087,H4INO4,-0.7818904751860003
mp-1238814,H4N,-0.14086200337199986
mp-1181677,H4N2O3,-0.9664775497766668
mp-34337,H4NCl,-0.864046653353333
mp-24019,H4NClO,-0.8311114348385712
mp-696666,H4NClO2,-0.7235635728274996
mp-706586,H4NClO4,-0.7764505450119991
mp-720615,H4NClO5,-0.742041581488182
mp-23794,H4NF,-1.1793334038416663
mp-1103675,H4NF2,-0.8526342063199992
mp-1212676,H4NF3,-0.99383944317875
mp-706053,H4NOF,-1.0870624635607131
mp-23798,H4OF2,-1.716743499729999
mp-723031,H4Os3C10O9,-0.7905483158934612
mp-600174,H4Pb(CO3)2,-1.4807699645753851
mp-1200366,H4PbI3N,-0.6208129263177781
mp-1204994,H4Pd(NO4)2,-1.0613292084493329
mp-1224352,H4Pd3,-0.034661797782857
mp-1147730,H4Pt,0.21003255643733354
mp-720439,H4Ru3C9N2O9,-0.8185774513607406
mp-642706,H4S(NO)2,-0.9398926117558328
mp-696283,H4S4N6O,-0.3170159214173329
mp-29095,H4SO5,-1.620675295229249
mp-720376,H4SeO5,-1.2383157058073742
mp-1078595,H4W,0.01599293410400051
mp-780738,H4WNCl6,-1.1066331076183336
mp-555516,H5(NO)3,-0.7232955235445456
mp-23893,H5BrNO,-0.8346701042787492
mp-28014,H5BrO2,-1.1590109863249998
mp-559535,H5C2ClO,-0.5700856475122222
mp-697242,H5C2NO,-0.6497805713959245
mp-738670,H5C2NO3,-0.9973882148163628
mp-601210,H5C2NO4,-1.1693872775400005
mp-1237314,H5C2S2N3,-0.4003991581970833
mp-774616,H5C3N5O,-0.5002759380357154
mp-707289,H5C8NO2,-0.4051410669050002
mp-1196017,H5CN3,-0.4484101419711103
mp-24232,H5CN3O4,-0.9155472428069232
mp-1213381,H5CN6Cl,-0.3246006608184615
mp-1213515,H5CN9O4,-0.3749493094484206
mp-555229,H5CNO2,-1.008254124636666
mp-560121,H5CNO3,-1.2432772474229992
mp-560045,H5CSN2Cl,-0.6106743811432495
mp-707816,H5CSN2ClO4,-0.6076233634951791
mp-706514,H5CSO5F3,-1.6482499395488333
mp-24381,H5ClO2,-1.2853840170450002
mp-1212635,H5ClO4,-0.4507794368859998
mp-626201,H5ClO6,-1.0604843342800006
mp-27773,H5IO6,-1.0787328096333342
mp-1181786,H5N2Cl,-0.26031636764000066
mp-24370,H5N2ClO4,-0.6196575059266672
mp-27235,H5N2F,-0.82667302550625
mp-31043,H5NF2,-1.3813520534824997
mp-1181559,H5NO,-0.9086760140864284
mp-625109,H5NO2,-0.5945950513100007
mp-29943,H5NO5,-1.2233380916345449
mp-1212907,H5PbC2SBrN6,-0.248919191183906
mp-1213452,H5PbC2SIN6,-0.25471771352765593
mp-1213279,H5PbC2SN6Cl,-0.337374789981407
mp-977014,H5PbCI3N2,-0.5032320530508336
mp-1195328,H5S2NO7,-1.5162281051569997
mp-1224688,H5SeNO4,-1.0329910841582193
mp-1095646,H5W,0.22352444198333346
mp-733613,H6AuBrN2,-0.5416277561480001
mp-1224626,H6AuN2ClO4,-0.6395028219457147
mp-1212539,H6C(N3O)2,-0.4817972378166663
mp-707543,H6C(N3O2)2,-0.5973938771911762
mp-1203058,H6C(NO)2,-0.967380889793635
mp-1197136,H6C(SN)2,-0.5081756264413648
mp-758097,H6C2N4O,-0.5861588744223076
mp-601178,H6C2NO,-0.3901078052849997
mp-860792,H6C2SBr2,-0.3313080346165911
mp-1212569,H6C2SN3O2,-0.6995821568158931
mp-1189850,H6C2SeO,-0.3478850004063752
mp-721707,H6C3N4O3,-0.8740070957025008
mp-1204839,H6C3S3NCl3O5,-0.8080065481460712
mp-555728,H6C3SN3O2F3,-0.8040070289023602
mp-997581,H6C6NO,-0.2630145269892858
mp-1213638,H6C8I3NO5,-0.6011508996347817
mp-997570,H6CIN,-0.4580205067055556
mp-696658,H6CN2O3,-0.8632940115816664
mp-707023,H6CN3Cl,-0.6498916028063633
mp-23909,H6CN3ClO,-0.7311257389266673
mp-24207,H6CN4O,-0.4926781001033334
mp-643099,H6CN4O3,-0.10867574598142936
mp-1096989,H6CNCl,-0.6155796690122217
mp-554051,H6CNF,-0.8160574432266662
mp-703380,H6CSBrN3,-0.4275670847227081
mp-24235,H6CSN4,-0.2911821805460413
mp-625374,H6N2O,-0.674624125303332
mp-1181419,H6N4O9,-0.9363239569731584
mp-560224,H6NO2F,-1.0898256160289996
mp-28003,H6OF4,-1.7798906261572731
mp-707478,H6Os5Pt(CO)16,-0.8470969523686371
mp-720469,H6Os5Pt2(CO)17,-0.8323707745578715
mp-1195902,H6PbC2S2O7,-1.0128797285330553
mp-977012,H6PbCBr3N,-0.6328928260708331
mp-995214,H6PbCI3N,-0.5154516477374997
mp-1021464,H6PbCNCl3,-0.8650065568858333
mp-1104061,H6Pd(NO)4,-0.7583179297493331
mp-1195303,H6Pt(NO)4,-0.7545945372493331
mp-706295,H6PtN2ClO5,-0.668509711149333
mp-1012740,H6RuCI3N,-0.2326538358625001
mp-553901,H6RuN3Cl3O,-0.8533755071350007
mp-23991,H6S(NO2)2,-1.166215684272501
mp-706620,H6S2N2O3,-0.8388194252580765
mp-604209,H6SN2,-0.2493976954769445
mp-1104418,H6W,0.08769780403999962
mp-1201215,H7AuN4O15,-1.0420124349485185
mp-625560,H7BrO3,-1.2071331612809095
mp-557248,H7C(NO)3,-0.6031417755342849