task_id,composition,formation_energy_per_atom
mp-1206019,Ce4SiI5,-1.1146615930000003
mp-1190081,Ce4SiRh12,-0.7151257664705881
mp-1226765,Ce4Sm,0.0494663855000006
mp-1226911,Ce4SmO10,-3.776855494333332
mp-754306,Ce4SmO9,-3.914244346696429
mp-1202847,Ce4Sn25Pd12,-0.4862333979268288
mp-640776,Ce4Sn25Pt12,-0.5538980728048772
mp-1226854,Ce4SnO10,-3.5025579978333328
mp-641183,Ce4Te3N2,-1.5824301927511115
mp-766123,Ce4ThO10,-4.0290865621666665
mp-753957,Ce4ThO8,-3.8617173353846144
mp-753456,Ce4ThO9,-4.0145657186607115
mp-1226869,Ce4UO10,-3.950128194166666
mp-760491,Ce4Y2O11,-3.8986704713970575
mp-686003,Ce4Y6O17,-3.8828969681944447
mp-773102,Ce4YO9,-3.9277718458035733
mp-1226943,Ce4Zn3Sb8,-0.6225635163333327
mp-1227615,Ce4ZrCo25,-0.10733331366666618
mp-1226815,Ce4ZrO10,-3.8956299601666653
mp-670677,Ce5(In2Pt)2,-0.6776955898484854
mp-1192858,Ce5(MgGe)8,-0.4552282319047617
mp-571312,Ce5(SiN3)3,-1.4888031777305892
mp-1199090,Ce5(Sn5Rh2)2,-0.676699562631578
mp-1106401,Ce5AgPb3,-0.3524758122222214
mp-675643,Ce5AgS8,-2.161864581607144
mp-676143,Ce5AgSe8,-1.6275277427678567
mp-865967,Ce5Al2Ru3,-0.4678931794999997
mp-680054,Ce5B4C5,-0.35597422252976074
mp-1226853,Ce5BiSb4,-0.9910796784999996
mp-623670,Ce5C2Br9,-1.5019478759374991
mp-627409,Ce5C2Cl9,-2.094593932614999
mp-542327,Ce5Co19,-0.15531970208333354
mp-1229080,Ce5Cu19P12,-0.5295391751587294
mp-753763,Ce5Dy2O13,-3.923161509812502
mp-542328,Ce5Ga3,-0.3493269468749993
mp-753088,Ce5Gd2O13,-3.9004239228125024
mp-1227601,Ce5Ge2Pd,-0.5284290599999997
mp-542005,Ce5Ge2Rh,-0.6219934996874992
mp-21651,Ce5Ge2Ru,-0.5567190471875003
mp-1200696,Ce5Ge4,-0.7037450208333335
mp-1213986,Ce5GeSb2,-0.7636741009374992
mp-680536,Ce5Ir4,-0.7142239047222224
mp-1039435,Ce5Mg,0.07892611333333359
mp-680586,Ce5Mg41,0.0024744899999998033
mp-616173,Ce5NiGe2,-0.42086350343749945
mp-640447,Ce5NiPb3,-0.3661801883333335
mp-32613,Ce5O9,-3.9525516450892852
mp-1203369,Ce5P12Ru19,-0.8845728816865075
mp-510369,Ce5Pb3O,-1.0226894518055554
mp-680602,Ce5Rh4,-0.6635798172222225
mp-1226916,Ce5S8,-2.243552149423077
mp-1226992,Ce5Sb4As,-1.0974000665
mp-1196829,Ce5Si4,-0.5975296561111113
mp-753792,Ce5Sm2O13,-3.8933200365625
mp-637308,Ce5Sn3,-0.5254283299999996
mp-1213873,Ce5Sn3Au,-0.6027917555555552
mp-21693,Ce5Sn4,-0.5532721174999998
mp-753355,Ce5Y2O13,-3.9132568008125013
mp-1019595,Ce5Zr3O16,-3.86343768875
mp-1228022,Ce6Al3Fe11,-0.11959206424999992
mp-570060,Ce6B2(CBr)3,-0.8349287063988088
mp-1190285,Ce6Cd4Pd13,-0.6713313743478252
mp-683922,Ce6Ge9(BO15)2,-2.7523250049113464
mp-645893,Ce6In14Pt11,-0.6947380789247309
mp-641689,Ce6In5Pd12,-0.7302161572463765
mp-1192664,Ce6Mg23As,-0.09874055783333327
mp-1192742,Ce6Mg23C,-0.011316704291666705
mp-1192839,Ce6Mg23Ge,-0.044271740500000094
mp-1192963,Ce6Mg23P,-0.09545845140476199
mp-1192592,Ce6Mg23Sb,-0.07304747616666656
mp-1192551,Ce6Mg23Si,-0.05195643866666634
mp-1192818,Ce6Mg23Sn,-0.03294603016666665
mp-1227432,Ce6MnSb15,-0.6041586502272726
mp-1214277,Ce6N8O33,-1.9068771708572327
mp-1214373,Ce6Ni20As13,-0.6853352975641028
mp-1214139,Ce6Ni20P13,-0.8944145007142853
mp-1193687,Ce6Ni6P17,-0.8574120964285709
mp-504776,Ce6P17Pd6,-0.8295894750492607
mp-680421,Ce6S4BrN3,-2.1114980472064286
mp-680697,Ce6Si4S17,-1.831436016631944
mp-1214252,Ce6SiNi4,-0.2914368977272723
mp-676287,Ce6Th4O19,-4.1220477235775865
mp-530883,Ce6Y26O51,-3.953328616069277
mp-758094,Ce6Y2O15,-3.937067054728258
mp-683992,Ce7(GePd2)2,-0.4673666050000006
mp-568922,Ce7C3I10,-1.1018776245625
mp-2629,Ce7O12,-3.9277733476315793
mp-1182329,Ce7Pt3,-0.6367132325
mp-31164,Ce7Ru3,-0.2703338195000001
mp-1227542,Ce7Ti4(Se2O)6,-2.313949218182472
mp-1191683,Ce7ZrO16,-3.909167936666666
mp-1229274,Ce8Ag6Ge8O,-0.7846114846195641
mp-1213829,Ce8AlPd24,-0.8059769372727265
mp-583042,Ce8C8Cl5,-1.1276521417285716
mp-705511,Ce8Fe8As8O7F,-1.8048128835918755
mp-1195670,Ce8GaPd24,-0.7947299084848483
mp-677234,Ce8Gd2O19,-3.9099195563362064
mp-1213827,Ce8GePd24,-0.7884568325757574
mp-1214111,Ce8InPd24,-0.7727188243434344
mp-675003,Ce8Nd2O19,-3.8917905540948263
mp-571125,Ce8Ni18P11,-0.96322584523166
mp-1213855,Ce8Pd24Pb,-0.7537134230303023
mp-1202101,Ce8Re13B12,-0.3952647911363625
mp-29101,Ce8SbPd24,-0.7937750489393935
mp-1213840,Ce8SnPd24,-0.7842319953030303
mp-649704,Ce9(Ni13P6)2,-0.8107360009726434
mp-1197286,Ce9(SbO)5,-2.2411443713815777
mp-680283,Ce9B3C6Br5,-0.8555626005434782
mp-674320,Ce9DyO20,-3.8692130041666655
mp-675102,Ce9GdO20,-3.863248058166666
mp-567514,Ce9Sb16Cl3,-1.049089745349285
mp-677131,Ce9YO20,-3.864988077833333
mp-11841,CeAg,-0.06689893500000021
mp-1202277,CeAg(PO3)4,-2.7055642758928573
mp-1226935,CeAg(PSe3)2,-0.5044512685848218
mp-1213933,CeAg(WO4)2,-2.3375865358333336
mp-1071422,CeAg2,-0.1805238583333324
mp-862709,CeAg3,-0.07482631999999967
mp-560230,CeAg6(NO3)9,-1.019029126399303
mp-985705,CeAgAs2,-0.7881123384375002
mp-865862,CeAgAu2,-0.5011880299999998
mp-11215,CeAgGe,-0.5002502466666657
mp-865885,CeAgHg2,-0.2781456099999997
mp-675111,CeAgP2,-0.5616958010714289
mp-13407,CeAgPb,-0.33173924500000024
mp-1201100,CeAgS2O9,-2.12052927661859
mp-510280,CeAgSb2,-0.6610525062500008
mp-20439,CeAl,-0.3282169674999995
mp-1226666,CeAl(CuNi)2,-0.3623240566666657
mp-2088,CeAl2,-0.4577530716666664
mp-1226637,CeAl2Ag3,-0.2593898683333329
mp-1071272,CeAl2BRu2,-0.6080539477777774
mp-1226644,CeAl2Cu3,-0.3600712333333327
mp-1206482,CeAl2Ni,-0.5213730400000003
mp-1079160,CeAl2Pt,-0.8670884462499995
mp-567305,CeAl3,-0.4108157637499996
mp-1070063,CeAl3Au,-0.5730121459999999
mp-1069443,CeAl3Cu,-0.4159703300000004
mp-1226634,CeAl3Pd,-0.5838559280000005
mp-4785,CeAl3Pd2,-0.8122220583333336
mp-1226648,CeAl3Pt,-0.7046466060000001
mp-1025102,CeAl3Pt2,-0.969390926666667
mp-2289,CeAl4,-0.2889399620000006
mp-13504,CeAl4Co,-0.4909037583333333
mp-12017,CeAl4Ge2Au,-0.4198744674999997
mp-30750,CeAl4Ni,-0.5334876691666656
mp-1213792,CeAl4Pd,-0.5983727141666666
mp-1078427,CeAl4Si2Ir,-0.6342478087499996
mp-1078224,CeAl4Si2Rh,-0.6179091787499997
mp-4817,CeAl5Ni2,-0.5704690987500003
mp-672344,CeAl5Pt3,-1.0131293999999993
mp-11031,CeAl7Au3,-0.4914872281818184
mp-676933,CeAl8O16,-2.4522332551999995
mp-865968,CeAlAg2,-0.2013484024999994
mp-1102423,CeAlAu,-0.6565067333333333
mp-571542,CeAlCo,-0.517365195
mp-1226649,CeAlCo4,-0.2630444483333321
mp-1079868,CeAlCu,-0.32124387777777724
mp-1226887,CeAlCu4,-0.272003893333333
mp-1079691,CeAlH2Ir,-0.7013979404479991
mp-1077038,CeAlIr,-0.7445707366666655
mp-11351,CeAlNi,-0.5663521566666666
mp-1226626,CeAlNi4,-0.4984603966666666
mp-1226604,CeAlO2,-2.8863322856249995
mp-21158,CeAlPd,-0.7774124488888887
mp-1106138,CeAlPd2,-0.8253359843749992
mp-19827,CeAlPt,-1.0247473408333327
mp-3344,CeAlRh,-0.8500737587499998
mp-604008,CeAlRu,-0.6014000549999992
mp-1206597,CeAlSi,-0.5846893383333333
mp-2748,CeAs,-1.4230919625
mp-1101892,CeAs2,-0.9896499133333332
mp-1226657,CeAs2Au,-0.7897930512500002
mp-574159,CeAs2Pd3,-0.8007135994444441
mp-1183729,CeAs3,-0.6854655437499995
mp-1195015,CeAsO3,-2.758616087750001
mp-10772,CeAsO4,-2.736770861666665
mp-1193745,CeAsO4F,-2.8629159430271427
mp-1201951,CeAsO5F,-2.24863191343
mp-10478,CeAsRh,-1.1441833675000008
mp-1080105,CeAsRuO,-2.0584400103124985
mp-5908,CeAsS,-1.7828384388541672
mp-1018087,CeAu,-0.6314309374999993
mp-1077442,CeAu2,-0.6752587983333331
mp-865572,CeAu3,-0.58247784875
mp-1103758,CeAu6,-0.3702371271428571
mp-8667,CeB2C,-0.5268664880208339
mp-556519,CeB2ClO4,-3.0601158714491667
mp-10964,CeB2Ir2C,-0.6063048403472221
mp-1226636,CeB2Ir2Rh,-0.6772758388888901
mp-1206294,CeB2Pd2C,-0.4902294170138895
mp-1024975,CeB2Pt2C,-0.6284850470138892
mp-6191,CeB2Rh2C,-0.6166803086805549
mp-5757,CeB2Rh3,-0.6832069388888892
mp-1226655,CeB2Ru2Rh,-0.5917088405555558
mp-5940,CeB2Ru3,-0.5063974013888881
mp-1974,CeB4,-0.6281782418333336
mp-1226711,CeB4(IrOs)2,-0.4942008446296282
mp-1193133,CeB4ClO8,-2.7892121892804758
mp-1198521,CeB5BrO11,-2.384807244004629
mp-21343,CeB6,-0.5165554314285714
mp-1200378,CeB7IO15,-2.3940637614756937
mp-642871,CeBMoO6,-2.8208507262962947
mp-29595,CeBN2,-1.5082630182733323
mp-20882,CeBO3,-3.4047958100833333
mp-19948,CeBPd3,-0.4915872413333332
mp-10468,CeBPt2,-0.8685866524999994
mp-22435,CeBPt3,-0.8803197293333334
mp-20051,CeBPt4,-0.7681407052777777
mp-510376,CeBRh3,-0.7630508473333336
mp-1189296,CeBS3,-1.6027692402708325
mp-457,CeBe13,-0.14234314214285707
mp-1226619,CeBeAl3,-0.3080978549999997
mp-1183685,CeBeO3,-3.1943764797500007
mp-686671,CeBeSiHO5,-2.745553729707777
mp-23285,CeBi,-0.7821081924999991
mp-1227635,CeBi2(Rh2O5)3,-1.6172604328645832
mp-1078370,CeBi2Au,-0.55369878625
mp-1025437,CeBi2SeO4,-2.2514681079492185
mp-1183850,CeBi3,-0.43015220624999984
mp-861888,CeBiAu2,-0.5763372537499993
mp-604453,CeBiPd,-0.8307446816666667
mp-1018162,CeBiPt,-0.9271296583333328
mp-610469,CeBiS2O,-2.112945370875
mp-569850,CeBr3,-1.8432612325
mp-754112,CeBrO,-3.051713417083333
mp-22672,CeC,-0.05476157937499959
mp-2839,CeC2,-0.15741581249999945
mp-1191020,CeC8N4(Cl2O3)2,0.6873354443452179
mp-1206355,CeCO,-2.096821275
mp-20288,CeCO3F,-3.04260863922611
mp-1195398,CeCO4,-2.8183930059953712
mp-11291,CeCd,-0.11569556749999955
mp-640089,CeCd11,-0.12152330180555558
mp-866189,CeCd2,-0.25342964333333323
mp-1206708,CeCd2Cu,-0.12761441000000007
mp-2863,CeCd3,-0.2092123412499997
mp-865552,CeCdAg2,-0.16765718374999986
mp-10316,CeCdAsO,-1.869401125312501
mp-11082,CeCdAu,-0.5436506327777779
mp-1079017,CeCdCu,-0.1712215483333329
mp-866274,CeCdHg2,-0.3443316837499999
mp-1227074,CeCdIn,-0.29631113277777743
mp-12006,CeCdNi4,-0.346347594166667
mp-1079977,CeCdPd,-0.5809087083333332
mp-1078450,CeCdPt,-0.7811902816666666
mp-582011,CeCl3,-2.6671214411950004
mp-22952,CeClO,-3.3995612931700014
mp-1112,CeCo2,-0.24886888333333346
mp-1025095,CeCo2B2C,-0.4530940270138887
mp-570872,CeCo3,-0.18157258666666695
mp-4454,CeCo3B2,-0.4872937438888888
mp-1226659,CeCo3Cu2,-0.08023901166666647
mp-21878,CeCo4B,-0.3109548536111113
mp-1226692,CeCo4Cu,-0.09093376166666664
mp-764,CeCo5,-0.10693091499999953
mp-1205715,CeCo5H4,-0.1804655014479998
mp-1203867,CeCo5P3,-0.8121614687698409
mp-1194086,CeCo9Ge4,-0.2626196607142859
mp-1193469,CeCo9Si4,-0.4829767664285701
mp-20753,CeCoC2,-0.299868616875
mp-1226624,CeCoCuSi2,-0.6154950939999999
mp-21339,CeCoGe,-0.5759451749999988
mp-1079178,CeCoGe2,-0.66099364
mp-1226751,CeCoGe2Ru,-0.5993531230000002
mp-21116,CeCoGe3,-0.5751088349999997
mp-644499,CeCoGeH,-0.6508418921549994
mp-1226669,CeCoRh,-0.4850796216666661
mp-1079392,CeCoSb2,-0.6366897850000006
mp-568089,CeCoSb3,-0.5550533094999999
mp-1018660,CeCoSi,-0.6623259249999999
mp-7095,CeCoSi2,-0.7889621074999997
mp-1226609,CeCoSi2Rh,-0.8912173939999996
mp-1070753,CeCoSi3,-0.7037186620000007
mp-1194060,CeCr2O10,-1.6159217301923077
mp-6258,CeCr2Si2C,-0.4948836314583325
mp-1191927,CeCrB4,-0.5942449086111109
mp-20650,CeCrGe3,-0.4272793849999992
mp-780921,CeCrO3,-3.0984469532500016
mp-561628,CeCrS2O,-2.265436000874999
mp-21871,CeCrS3,-1.7612670354375006
mp-1213967,CeCrSb3,-0.4492912130000001
mp-20170,CeCrSe3,-1.1796026536562498
mp-636198,CeCu,-0.03250263625000027
mp-1213939,CeCu(WO4)2,-2.3413976079166665
mp-2801,CeCu2,-0.14210805000000035
mp-1213794,CeCu2Si,-0.4016589649999993
mp-1226656,CeCu2SiGe,-0.5344925189999991
mp-640286,CeCu4Sn,-0.07656019999999883
mp-761,CeCu5,-0.09349248666666672
mp-1194241,CeCu5Ag,-0.1220978785714288
mp-12562,CeCu5Au,-0.22227778642857127
mp-637204,CeCu5Sn,-0.22180233392857115
mp-21708,CeCu6,-0.11662004142857033
mp-1196371,CeCu6(PO7)3,-1.1131660607315668
mp-1215076,CeCu9Sn4,0.03186121464285715
mp-20766,CeCuGe,-0.5767290733333326
mp-1080708,CeCuGe2,-0.5347106862499995
mp-1096766,CeCuN2,-0.7626703336899991
mp-977389,CeCuO3,-2.33973242275
mp-1096897,CeCuPb,-0.2751109783333335
mp-1226665,CeCuPt4,-0.6376252350000003
mp-5766,CeCuS2,-1.6737557132812508
mp-635469,CeCuSO,-2.293917780078125
mp-672238,CeCuSb2,-0.6570604200000005
mp-11791,CeCuSe2,-1.1965998136718747
mp-22740,CeCuSi,-0.5574459199999993
mp-1080057,CeCuSi2,-0.5751527650000003
mp-1226605,CeCuSi2Ni,-0.6921644419999993
mp-1226625,CeCuSi2Pd,-0.7501174120000001
mp-1226642,CeCuSi2Ru,-0.6321820430000002
mp-22683,CeCuSn,-0.4683920449999993
mp-1079385,CeCuTeO,-1.9522911053125
mp-984779,CeDy3,0.08591330249999984
mp-1226713,CeDy4S7,-2.422017340703125
mp-1226639,CeDyFe4,-0.07037884666666727
mp-1183803,CeDyMg2,0.003164655000000405
mp-20775,CeDyS3,-2.4505697329375
mp-984702,CeDyZn2,-0.2547764924999996
mp-1226617,CeEr,0.10461263749999984
mp-1183865,CeEr3,0.06754207000000001
mp-1226714,CeEr4S7,-2.4085977965364584
mp-1183776,CeErIn2,-0.3874535704166675
mp-984355,CeErMg2,0.004771738750000143
mp-1202288,CeErS3,-2.4427482689375006
mp-1184049,CeEu3,0.1914549549999993
mp-1183853,CeEuAg2,-0.0929047887500003
mp-1226635,CeEuAl4,-0.4136776591666666
mp-1226734,CeEuB12,-0.4926231725000006
mp-1183861,CeEuCd2,-0.2124592512500003
mp-1183873,CeEuZn2,-0.1833614212500008
mp-542001,CeF4,-4.081785165618667
mp-1228034,CeFe(Ni2Ge)4,-0.3572409624999996
mp-204,CeFe2,-0.08601152666666677
mp-1105352,CeFe4(CuO4)3,-1.7951605032499998
mp-11317,CeFe5,-0.013909861666667448
mp-1193262,CeFe9Si4,-0.4061291964285719
mp-1079570,CeFeAsO,-1.8124459228125005
mp-1226668,CeFeCo,-0.16232875666666638
mp-1226680,CeFeCu,-0.03354827833333355
mp-20722,CeFeGe3,-0.5070082410000005
mp-1226721,CeFeNi4,-0.2502438933333337
mp-776515,CeFeO3,-2.9697351367499984
mp-1079507,CeFeSb2,-0.5291699349999996
mp-20245,CeFeSi,-0.6081398966666663
mp-1025450,CeFeSi2,-0.6874924187500007
mp-1018276,CeGa,-0.4632680374999998
mp-2209,CeGa2,-0.5776078099999999
mp-1226676,CeGa2Cu3,-0.3375403983333332
mp-1025446,CeGa2Ni,-0.5815119662499999
mp-1227952,CeGa2Ni3,-0.5069334049999996
mp-862696,CeGa3,-0.5463251362500001
mp-1226613,CeGa3Cu,-0.4416361799999997
mp-1226580,CeGa3Ni,-0.4949902439999995
mp-1078348,CeGa3Pd,-0.6767586010000002
mp-3494,CeGa3Pd2,-0.7116402650000003
mp-1006277,CeGa4Co9,-0.22376438785714164
mp-30267,CeGa4Os,-0.4586256597222224
mp-711,CeGa6,-0.31708869642857096
mp-1190078,CeGa6Ni,-0.4197988731249995
mp-580215,CeGa6Pd,-0.4748880975000001
mp-1203026,CeGa8Pd3,-0.5407325236111097
mp-1077578,CeGaAg,-0.4043311349999996
mp-1071448,CeGaCo,-0.5549703950000003
mp-1226702,CeGaCu4,-0.2322598033333326
mp-1025144,CeGaGe,-0.6136249316666659
mp-1213791,CeGaIr,-0.8394867591666669
mp-31492,CeGaNi,-0.6089550811111116
mp-1226588,CeGaNi4,-0.4712500966666665
mp-1102053,CeGaPd,-0.7905978250000002
mp-639863,CeGaPd2,-0.8004574912500004
mp-1103487,CeGaPt,-1.0094868841666658
mp-1226944,CeGaPt4,-0.7670333066666662
mp-1102417,CeGaRh,-0.8070645766666674
mp-1185539,CeGd3,0.10004789500000122
mp-1226544,CeGdN2,-1.7127981211899996
mp-1079395,CeGe,-0.7022175912499993
mp-21055,CeGe2,-0.5713245233333334
mp-13122,CeGe3Ir,-0.6480521450000005
mp-21689,CeGe3Pd5,-0.6936350833333336
mp-13121,CeGe3Rh,-0.6879867130000001
mp-1198354,CeGe3Ru,-0.5985847215000006
mp-984703,CeGe5,-0.2946796841666668
mp-4219,CeGeAu,-0.7385348599999991
mp-1206513,CeGeBi2,-0.3693344674999999
mp-20022,CeGeIr,-0.8771864774999992
mp-1213932,CeGeO2,-2.231087233125
mp-21647,CeGePd,-0.9030687508333336
mp-1188948,CeGePd2,-0.8090427162499996
mp-627355,CeGePt,-1.0557743508333328
mp-505282,CeGeRh,-0.9061218716666666
mp-1199725,CeH(SeO3)2,-1.9744827792057509
mp-1237032,CeH12N5F4,-0.9547722652318178
mp-505786,CeH14Cl3O7,-1.5831858803683998
mp-554484,CeH16C4Cl3O4,-0.989160380899999
mp-1204992,CeH16N7O19,-1.2379533322867442
mp-505569,CeH2,-0.6067144057466661
mp-1008376,CeH3,-0.5784957414649998
mp-642731,CeH3(CO2)3,-1.7681586738161543
mp-1202113,CeH8(SO6)2,-1.9502781446558688
mp-510452,CeHSO5,-2.590034581429061
mp-1213799,CeHf2F11,-4.243655679149287
mp-1039949,CeHfMg30O32,-2.942661180390625
mp-770372,CeHfO4,-3.944941916666668
mp-30506,CeHg2,-0.36005986666666673
mp-862668,CeHg3,-0.30992159500000005
mp-1184341,CeHgAu2,-0.5104293924999999
mp-1079310,CeHgPd,-0.6114541388888881
mp-1183834,CeHo3,0.07063139375000027
mp-1226677,CeHo4S7,-2.4123834365364587
mp-1183753,CeHoIn2,-0.3913144029166665
mp-1183859,CeHoMg2,0.003772291249999782
mp-1183730,CeHoZn2,-0.25932155875
mp-1025426,CeI3,-1.3760572299999998
mp-21278,CeIn2Ir,-0.5016668754166673
mp-21460,CeIn2Pd,-0.5609541116666668
mp-1191263,CeIn2Pd3,-0.6734190148611118
mp-1206576,CeIn2Rh,-0.5618174029166667
mp-20369,CeIn3,-0.3945097675000002
mp-1229267,CeIn3(CuSe2)4,-0.5434199574218752
mp-1214689,CeIn3Pt,-0.5498803594999998
mp-1102039,CeIn4Ni,-0.3177133255555559
mp-642458,CeIn4Pd,-0.4420266597222226
mp-19961,CeIn5Co,-0.2453649452380954
mp-20975,CeIn5Ir,-0.3696591195238089
mp-20294,CeIn5Rh,-0.4282806409523816
mp-1227242,CeIn7Cu5,-0.06653302025641003
mp-1078439,CeIn7Pt2,-0.4596803103333336
mp-672191,CeInAg2,-0.2688669408333331
mp-19718,CeInAu,-0.6145107433333329
mp-636232,CeInAu2,-0.6309135208333334
mp-20665,CeInCu,-0.279839456666666
mp-19834,CeInCu2,-0.2442934408333333
mp-1226682,CeInCuAg,-0.2295966558333333
mp-21492,CeInNi,-0.445822484444444
mp-1206393,CeInNi4,-0.3653322255555563
mp-21387,CeInPd,-0.7195058677777781
mp-20231,CeInPd2,-0.7199300283333336
mp-640922,CeInPt,-0.9245360266666668
mp-1071478,CeInPt4,-0.813473755555556
mp-1079553,CeInRh,-0.7041849577777783
mp-582,CeIr2,-0.7783540033333326
mp-1191930,CeIr3,-0.6090944812500005
mp-1226564,CeIrOs,-0.5037447016666677
mp-1226519,CeIrPt,-0.8920383616666664
mp-1226499,CeLuAl4,-0.4326110949999998
mp-1183764,CeLuMg2,0.008959567499999821
mp-1213810,CeLuO3,-3.88995695625
mp-1092225,CeLuS3,-2.4400800814375003
mp-1038816,CeMg,0.007198082500000425
mp-1213931,CeMg(BO2)5,-3.0899478238725484
mp-1202058,CeMg(N3O13)2,-0.6905830447582358
mp-1202143,CeMg(NO4)6,-0.7729540845087506
mp-1205661,CeMg(NiH)4,-0.19536797944800027
mp-1103919,CeMg12,0.014121348461538528
mp-1099098,CeMg14Bi,0.031136219687500025
mp-1099116,CeMg14C,0.21679511882812494
mp-1099096,CeMg14Cd,0.02827891343750033
mp-1099113,CeMg14Co,0.09148929249999993
mp-1099091,CeMg14Cu,0.07376137187500031
mp-1028432,CeMg14Fe,0.13593959187500015
mp-1099081,CeMg14Ni,0.05081623562500015
mp-1099093,CeMg14Si,0.07546717187500017
mp-1099079,CeMg14Sn,-0.02158705718749987
mp-1039304,CeMg2,0.0009487941666671179
mp-30504,CeMg2Cu,0.14943023000000055
mp-542934,CeMg2Cu9,-0.14631216958333285
mp-1226521,CeMg2Fe,0.3191923550000002
mp-697677,CeMg2H7,-0.4005203907839999
mp-1226627,CeMg2Ni,-0.0258328175
mp-13505,CeMg2Ni9,-0.2822036700000001
mp-1798,CeMg3,-0.01900799749999971
mp-1039958,CeMg30BO32,-2.9138745468229166
mp-1038976,CeMg5,-0.009342653333333395
mp-1099111,CeMg6Al,0.059802621250000236
mp-1017491,CeMg6B,0.2169154229166668
mp-1099331,CeMg6Bi,-0.024378674374999854
mp-1100152,CeMg6C,0.2267558826562501
mp-1099327,CeMg6Cr,0.21799747000000025
mp-1099323,CeMg6Cu,0.07380491375000009
mp-1022318,CeMg6Fe,0.1792715975000001
mp-1099330,CeMg6Ga,-0.0018725637500001113
mp-1099328,CeMg6Ni,0.09616729250000013
mp-1099334,CeMg6Sb,-0.06889365312499995
mp-1099326,CeMg6Si,0.041533132500000125
mp-1099311,CeMg6V,0.21364374124999985
mp-1099273,CeMg6Zn,0.06029599312500045
mp-1080547,CeMgAg,-0.12874227555555487
mp-759835,CeMgAu,-0.5494243644444441
mp-1183717,CeMgAu2,-0.6598296374999997
mp-1183727,CeMgCd2,-0.2319772874999999
mp-1205969,CeMgCu,-0.06744166888888811
mp-22237,CeMgCu2,-0.11915904999999948
mp-21375,CeMgGa,-0.3592423022222222
mp-1183744,CeMgHg2,-0.3909589675
mp-19731,CeMgPd,-0.5569041899999997
mp-1213760,CeMgRh,-0.556557891111111
mp-1232197,CeMgS3,-1.7442569429374999
mp-1232259,CeMgSe3,-1.2079554066562508
mp-3545,CeMgSi2,-0.5257804474999999
mp-1095568,CeMgSn,-0.4509299591666665
mp-21518,CeMgTl,-0.20644455277777693
mp-1106150,CeMn4(CuO4)3,-1.892439278442
mp-1226628,CeMnAl,-0.2031330466666669
mp-1078286,CeMnAsO,-1.9003988730524999
mp-1226532,CeMnCrSi2,-0.4762526120000004
mp-21399,CeMnGe,-0.426008435
mp-1226888,CeMnIn,-0.027917001111111023
mp-5951,CeMnNi4,-0.2771283583333333
mp-1183706,CeMnO3,-2.8055645189420004
mp-542723,CeMnSbO,-1.7363504030524997
mp-505331,CeMnSi,-0.5073059233333327
mp-5901,CeMnSi2,-0.6211828112499997
mp-1226515,CeMnSi2Pd,-0.6865155940000001
mp-1206151,CeMnSn2,-0.21656170499999927
mp-1182627,CeMo12(NO27)2,-0.978242504815362
mp-542272,CeMo5O8,-1.922019599107143
mp-1194116,CeMoBrO4,-2.567837558928572
mp-1196379,CeMoClO4,-2.7149971118942844
mp-1213789,CeMoO2,-2.097767969375001
mp-1192442,CeMoO4F,-2.9812768637414284