task_id,composition,formation_energy_per_atom
mp-1189870,Ca5Ga3,-0.37725321468749984
mp-744410,Ca5Gd3Ti5Mn3O24,-3.341672762842832
mp-1884,Ca5Ge3,-0.6288880759374997
mp-643912,Ca5Ge3H,-0.6499072923466661
mp-774105,Ca5Ge3O11,-2.9268948995394743
mp-31154,Ca5Hg3,-0.4367268640625
mp-743699,Ca5Ho3Ti5Mn3O24,-3.3680421457178342
mvc-13252,Ca5La10Mn14(NiO24)2,-2.7240231819106326
mp-743863,Ca5La7Mn7Ru5O36,-2.686961657903666
mp-1094702,Ca5Mg,0.006168223749999886
mp-686434,Ca5Mg5P5O21F4,-3.2922584207931065
mvc-13112,Ca5Mn2(NiO6)2,-2.2595956354485716
mp-767184,Ca5Mn4O9,-2.7082048629216677
mp-767043,Ca5Mn8O13,-2.4715189877473067
mp-767160,Ca5MnO6,-3.0865985896633337
mp-680842,Ca5MnPb3,-0.3054903052777773
mp-651786,Ca5MnSi9(Pb3O11)3,-2.785933202801929
mvc-12279,Ca5Nb4(CoO9)2,-2.9370943732758623
mp-555924,Ca5Nb5O17,-3.2896499608796317
mp-675101,Ca5NbN5,-1.212713869945454
mp-699041,Ca5Nd5Mn9CrO30,-2.7765122750228
mp-28170,Ca5Ni15B4,-0.32234251954861115
mp-1193893,Ca5Ni17Ge8,-0.4324047079166661
mp-18360,Ca5P12Ir19,-0.7073215250892851
mp-10582,Ca5P12Rh19,-0.9339362373115079
mp-1214051,Ca5P3CO12,-2.9028743006037416
mp-555164,Ca5P3ClO12,-3.327039541889932
mp-41472,Ca5P3HO13,-3.2460527278999365
mp-6473,Ca5P3O12F,-3.4383072238151704
mp-1227239,Ca5P3O13,-3.2604446400085036
mp-28879,Ca5P8,-0.9061753565109892
mp-1182146,Ca5Pb3,-0.5256794240625
mp-1104669,Ca5Pd2,-0.5010382167857144
mp-1103570,Ca5Pt2,-0.7077704939285715
mp-1105651,Ca5Pt3,-0.8024443509374994
mp-1214063,Ca5Rh,-0.2315008683333334
mp-1214204,Ca5S3O12F,-2.65227139027988
mvc-13126,Ca5Sc2(CoO6)2,-2.8638888034523813
mp-1227400,Ca5Si(PO6)2,-3.4036285109642863
mp-6753,Ca5Si2C2O13,-3.122198256306818
mp-6796,Ca5Si2CO11,-3.2744871556578943
mp-695314,Ca5Si2HO9F,-2.396953374364445
mp-6607,Ca5Si2SO12,-3.2798607672031244
mp-793,Ca5Si3,-0.4870735853125003
mp-1214077,Ca5Si3O13,-3.0130812161309537
mp-1214016,Ca5Sn3,-0.6479166103125
mp-1106280,Ca5Sn3H,-0.6765412517911109
mp-1100378,Ca5Sn3S11,-1.625214875904606
mp-769610,Ca5Ta4O15,-3.4538456123437484
mp-720394,Ca5TaTi3Al(SiO5)5,-3.4776771348437507
mp-559210,Ca5Te3O14,-2.5320124786363647
mp-675846,Ca5ThF14,-4.181165565208
mp-720340,Ca5Ti3NbAl(SiO5)5,-3.4469989803437517
mp-1227225,Ca5TiSn4(BO3)10,-2.9290234663666657
mp-1214147,Ca5V3CO12,-2.6233655731547607
mp-1202595,Ca5V3ClO12,-3.042220360750476
mp-1214210,Ca5V3O12,-3.0275662210000003
mp-565819,Ca5V3O12F,-3.135698423270953
mp-1214138,Ca5V3O13,-2.962622705178572
mp-567141,Ca5W(N2O)2,-1.7289330974599997
mp-778915,Ca5W3O14,-2.864479203522727
mp-743716,Ca5Y3Ti5Mn3O24,-3.3565148373428344
mp-698722,Ca5Yb3Ti5Mn3O24,-3.247406784342833
mp-2786,Ca5Zn3,-0.1931828621874998
mp-1203446,Ca5Zr3F22,-4.156578086789334
mp-1227668,Ca5Zr4Ti(GeO5)5,-3.1350754531354164
mp-1229248,Ca65Ga24Sn19,-0.5618950477083331
mp-1227088,Ca6Ag3Ge5,-0.5432507414285713
mp-1227858,Ca6Al2Fe4O15,-2.8374628326388893
mp-989399,Ca6Al2NF,-1.0047703573569997
mp-1227210,Ca6Al3(Si4N9)2,-1.3691841570811432
mp-1214183,Ca6Al43W4,-0.2077240452830191
mp-677618,Ca6Al6Si3(HO12)2,-3.0792713750546343
mp-1227232,Ca6Al7ClO16,-3.4600902752753333
mp-721592,Ca6Al7O16,-3.4248948981034486
mp-1227337,Ca6Al7O16F,-3.514358063373
mp-1227522,Ca6AlCr3(SiO4)6,-3.264213966874999
mp-1182709,Ca6As4PO35,-0.9536436359976704
mp-1227023,Ca6Br2N3Cl,-1.6088040812833335
mp-1214079,Ca6Cd32Cu,-0.19102543166666666
mp-1227118,Ca6Co3RhO12,-2.3979563772727275
mp-1227494,Ca6Fe(CoO4)3,-2.5133039106818176
mp-16916,Ca6FeN5,-0.9410872559916672
mp-686681,Ca6Ga6Si3(HO12)2,-2.6510978949326827
mp-17875,Ca6GaN5,-0.9573699168249992
mp-1019564,Ca6Ge2O,-1.0747739995833332
mp-1227148,Ca6Ge7Au15,-0.5172156810714286
mp-558489,Ca6Hf19O44,-3.933621522753623
mp-755421,Ca6HfO8,-3.491251402666666
mp-989404,Ca6In2NF,-1.1428858990236666
mp-720199,Ca6La14Mg7Ti13O60,-3.634340016566668
mp-743861,Ca6La2Mn7CrO24,-2.6629759010430005
mp-738745,Ca6La4Ti5Cr5O30,-3.323112063816666
mp-1227904,Ca6Mg2Co(AsO5)6,-2.0346051233888884
mp-699405,Ca6Mg5Al2Si11O36,-3.3723143660000003
mp-1227703,Ca6Mn3Al(SiO6)4,-2.7029750309968423
mvc-12222,Ca6Mn3Al2O15,-2.8186365716011537
mp-1227750,Ca6MnAl11,-0.299583949305555
mp-1203787,Ca6MnBe4Si6HO24,-3.198854862192382
mp-17577,Ca6MnN5,-1.0089385505749997
mp-698723,Ca6Nd6ScMn11O36,-2.8346243027593325
mp-1227454,Ca6P19Rh30,-0.8840208533766237
mp-989582,Ca6Pb2SeN,-0.959187537597376
mp-706248,Ca6Pr6Mn11CrO36,-2.7669804550093327
mp-1227024,Ca6Sc(CoO4)3,-2.6747282968181816
mp-697022,Ca6Si2H6O13,-2.7872490673322226
mp-1214120,Ca6Si2O13,-2.7239994088690485
mp-554539,Ca6Si3H2O13,-3.2189583730620845
mp-1202523,Ca6Si3O13,-3.2425661061931823
mp-1183664,Ca6Si6H2O19,-3.270836576545152
mp-1200566,Ca6Si6O19,-3.2726369983467736
mp-989590,Ca6Sn2NF,-1.357058094357
mp-989584,Ca6Sn2NO,-1.3478385328630005
mp-866538,Ca6Sn5S16,-1.142103438703704
mp-1204949,Ca6Te5N2O21,-2.218654898706176
mp-693358,Ca6Ti5AlSi6O29F,-3.503484974911944
mp-695616,Ca6TiAl5Si6(O5F)5,-3.5495601757055564
mp-1227714,Ca6V3Fe7O24,-2.543953891500001
mp-568511,Ca7(B7Rh10)2,-0.6209385996544716
mp-984055,Ca7(H6Cl)2,-0.9711601286885712
mp-1203093,Ca7(Si2O5)8,-3.2823920844841266
mp-1044962,Ca7(TiS2)8,-1.9082977503494631
mp-705871,Ca7Al3Si10N21,-1.3426260220117063
mp-30369,Ca7Au3,-0.5771864787500001
mp-560453,Ca7Cu(PtO6)2,-2.4973799030681816
mp-765523,Ca7Cu17O24,-1.6154489365104172
mp-10008,Ca7Ge,-0.00837044218750016
mp-16571,Ca7Ge6,-0.6378290917307691
mp-570555,Ca7GeN6,-0.9630239842342851
mp-744008,Ca7La3Ti5Cr5O30,-3.2673307016666664
mp-1076526,Ca7Mg(Co2O5)4,-2.1880656859722225
mp-1076128,Ca7Mg(CoO3)8,-1.8839358925625007
mp-1099952,Ca7MgCo7CuO20,-2.1518815088194447
mp-1076132,Ca7MgCo7CuO24,-1.8780599315625
mp-1099907,Ca7MgFeCo7O20,-2.2287801943750005
mp-1076139,Ca7MgFeCo7O24,-1.937859197062501
mp-1099831,Ca7MgMn7FeO20,-2.5340528132422206
mp-1076214,Ca7MgMn7FeO24,-2.3397634817305004
mp-1076897,Ca7MgMn8O20,-2.5480962309772224
mp-1076485,Ca7MgMn8O24,-2.3560158752545
mp-1076207,Ca7MgTiMn7O20,-2.684443838705186
mp-1076543,Ca7MgTiMn7O24,-2.497573243647166
mp-567722,Ca7NbSi2N9,-1.3587517333642098
mp-542863,Ca7NbSi4O17F,-3.496483669831334
mp-1227125,Ca7Ni(IrO6)2,-2.508342542613637
mp-31158,Ca7Ni4Sn13,-0.4871617344791665
mp-1227284,Ca7Si6CO23,-3.054775021621622
mp-733443,Ca7Si6H4CO23,-3.0533521496214626
mp-1029474,Ca7SiN6,-1.1357389986985709
mp-866870,Ca7Sn3S13,-1.6827917827309788
mp-31394,Ca7Sn6,-0.6418619326923078
mp-30961,Ca7Tl3N2,-0.6901977210216668
mp-1227114,Ca7TlN4,-0.8785385697516664
mp-1227090,Ca8(DySe4)3,-1.9428912075271745
mp-1227063,Ca8(YbSe4)3,-1.857278975353261
mp-1227897,Ca8Al11Fe(Si3O13)4,-3.2590985477976178
mp-1190736,Ca8Al3,-0.15244897000000018
mp-1227241,Ca8Al3(FeO4)5,-2.865052266805556
mp-1227544,Ca8Al9Fe3Si12(HO13)4,-3.1663341640850002
mp-1227789,Ca8Be5Al3(Si9O28)2,-3.2260854167222215
mp-707409,Ca8Bi12O25,-1.9088724889907398
mvc-12302,Ca8Cr(PO4)7,-3.1166025081818183
mp-1227452,Ca8Fe5(WO8)3,-2.663182098
mp-530696,Ca8H3N4,-0.8988835254253331
mp-1214306,Ca8In3,-0.32574166636363666
mp-744075,Ca8La2Ti5Cr5O30,-3.2097956575166653
mp-744914,Ca8MgAl6Si5O28,-3.0625570496875
mp-686598,Ca8MgSi4(ClO8)2,-2.9771193668232256
mp-1214022,Ca8Mo7O20,-2.5765129161428573
mp-1204649,Ca8P6O29,-2.5961085928862127
mp-1228814,Ca8ScFe7(SiO3)20,-3.0753015909895836
mp-1227334,Ca8Si4(O5F)3,-3.5216828120773322
mp-1019570,Ca8Si5O18,-3.4830435408064515
mp-743771,Ca8V7ZnBiO28,-2.8290929302222234
mp-1227259,Ca8Zn3Co(Si2O7)4,-3.150701784583333
mp-1227205,Ca8Zn4Si3Ge5O28,-2.814097889375
mp-1227193,Ca8ZnCo3(Si2O7)4,-3.1105453214583334
mp-1182427,Ca9(Si3O16)2,-2.2370888146276595
mp-1178586,Ca9(WO3)20,-2.423411100589888
mp-569892,Ca9B2(CCl2)4,-1.5712556520397094
mp-30446,Ca9Cd4Bi9,-0.6549543405681817
mp-851050,Ca9Co(PO4)7,-3.195204697833333
mp-565894,Ca9Cr(PO4)7,-3.2630181477222218
mp-566672,Ca9Fe(PO4)7,-3.2372586555
mp-555661,Ca9In(PO4)7,-3.2451348349074083
mp-782009,Ca9La5Br33,-1.9453285757978724
mp-782047,Ca9La5Cl33,-2.7336721752144695
mp-706340,Ca9LaMn10O30,-2.566258235291999
mp-686651,Ca9LaTi10O30,-3.591556722833333
mp-744380,Ca9LaTi4Mn6O30,-2.994019323048533
mp-706246,Ca9LaTi6Mn4O30,-3.201750842376798
mp-694916,Ca9LaTi8Mn2O30,-3.4070179377050662
mp-694954,Ca9LaTi9MnO30,-3.5099110584192004
mp-1203362,Ca9Mg(PO4)7,-3.267007818722223
mp-851044,Ca9Mn(PO4)7,-3.233028764743555
mp-31042,Ca9Mn4Bi9,-0.5155741928409086
mp-1228104,Ca9Nb2Ga10(SiO7)6,-2.9424930091304344
mp-531110,Ca9PrF20,-4.164239971043333
mp-1227767,Ca9Si4O17F,-3.4517627509658064
mp-1214849,Ca9Si6(WO7)4,-2.854140640053191
mp-1227804,Ca9Y3(CoO6)4,-2.5754913219375006
mp-27262,Ca9Zn4Bi9,-0.6520501701136361
mp-21594,Ca9Zn4Sb9,-0.8096995917045459
mp-983567,CaAc3,0.06094225062500014
mp-1183474,CaAcAu2,-0.8011154910416667
mp-1183472,CaAcGa2,-0.44937679354166704
mp-865173,CaAcHg2,-0.5408916085416668
mp-985450,CaAcIn2,-0.4384781252083334
mp-1183488,CaAcMg2,-0.08820828354166688
mp-1183483,CaAcRh2,-0.4607494710416669
mp-1183500,CaAcTl2,-0.4159220535416668
mp-864962,CaAcZn2,-0.2665463135416668
mp-538,CaAg,-0.3376724987500004
mp-13270,CaAg2,-0.3013198458333329
mp-1096029,CaAg2Pb,1.185784283125
mp-865729,CaAg2Sn,-0.34698472062499963
mp-1183511,CaAg3,-0.1920929893749994
mp-1041246,CaAg3P3O13,-1.9455635320089288
mp-5615,CaAgAs,-0.7899078119444441
mp-1213950,CaAgAsO4,-2.0634417489285717
mvc-5380,CaAgAsO5,-1.7802343039062505
mp-1093571,CaAgAu2,0.7329401631249999
mp-568664,CaAgBi,-0.5576523775000002
mp-1044106,CaAgBiO5,-1.52468661140625
mp-1200102,CaAgGe,-0.4886235702777771
mp-984704,CaAgHg2,-0.3299521618750001
mp-997004,CaAgO2,-1.9165825199999995
mp-12277,CaAgP,-0.7625392721031746
mp-11214,CaAgSb,-0.6998340200000003
mp-1206764,CaAgSn,-0.5250645019444443
mp-1182082,CaAl(OF2)2,-2.826212209345
mp-1227489,CaAl12O19,-3.444634138945313
mp-560993,CaAl12Si4O27,-3.3799532557102285
mp-2404,CaAl2,-0.3273229724999999
mp-1191489,CaAl2(OF)4,-2.77922808566
mp-1190607,CaAl2(OF3)2,-3.3115619792854543
mp-1227927,CaAl2(Si2O7)2,-2.8489715283333337
mp-1203968,CaAl2(Si2O7)3,-2.221216762958334
mp-1197130,CaAl2(Si3O10)2,-2.6063615540517238
mp-1229169,CaAl2(Si8O19)2,-3.079201646403509
mp-6532,CaAl2(SiO4)2,-3.442043485096153
mp-1214062,CaAl2(SiO4)3,-2.784644219305555
mp-1194309,CaAl2(SiO5)2,-2.6920693836666656
mp-1182213,CaAl2(SiO6)2,-2.312655669852941
mp-557689,CaAl2B2O7,-3.2827994549652786
mp-1227363,CaAl2F10,-3.3426779845692307
mp-1213962,CaAl2F8,-3.927576004274545
mp-707040,CaAl2H16N9,-0.55922311828
mp-1215043,CaAl2O12,-0.9385190705
mp-2963,CaAl2O4,-3.469701871785714
mp-643941,CaAl2Si(HO2)4,-2.6740677763737493
mp-1227373,CaAl2Si2(ClO4)2,-2.8429868020457785
mp-24603,CaAl2Si2(H2O5)2,-2.7745799178673685
mp-1215045,CaAl2Si2(WO2)4,-1.3072641473529412
mp-1215070,CaAl2Si2(WO4)2,-2.1495198165000002
mp-1214006,CaAl2Si2HO9,-2.698913171824667
mp-1194858,CaAl2Si3(HO3)4,-2.8544862821354537
mp-707746,CaAl2Si3H6O13,-2.6801245874188004
mp-1195158,CaAl2Si3O10,-3.3414106490625004
mp-1202493,CaAl2Si3O13,-2.5621097096710543
mp-1214322,CaAl2Si3W3O10,-1.9007003928947364
mp-1227752,CaAl2Si4(ClO4)3,-2.8269698882854546
mp-706640,CaAl2Si4(H2O7)2,-2.6321008827792003
mp-1214076,CaAl2Si4(HO6)2,-2.819558195701904
mp-1227551,CaAl2Si4O15,-2.4602383511931816
mp-1214101,CaAl2Si6(HO4)4,-2.566188345413104
mp-1214127,CaAl2Si6H10O21,-2.61401956612375
mp-1019584,CaAl2SiO6,-3.4442707295
mp-1226903,CaAl3PSO14,-2.337545519560268
mp-1749,CaAl4,-0.1843897894999998
mp-1227202,CaAl4(SiO3)8,-2.986013844527028
mp-4867,CaAl4O7,-3.4793363205208334
mp-24469,CaAl4Si2(HO6)2,-3.149400077130476
mp-1226904,CaAl4Si2O11,-3.3438745736805555
mp-1194752,CaAl6H12(SO7)4,-2.341127255925294
mp-11350,CaAl9Co2,-0.38005666062499976
mp-3479,CaAl9Ni,-0.2369758752272717
mp-568424,CaAlAu,-0.6995764424999997
mp-556532,CaAlB3O7,-3.1481563309375
mp-559759,CaAlBO4,-3.337529623095238
mp-1192520,CaAlCuSi2O9,-2.5569207656250006
mp-8836,CaAlF5,-4.055879896207143
mp-1214299,CaAlFe3O7,-2.4582717586458336
mp-1226821,CaAlGa,-0.41290272583333376
mp-966582,CaAlH5,-0.3898101900857139
mp-571039,CaAlPd,-0.7371375483333331
mp-1102631,CaAlPt,-0.9717454716666664
mp-3173,CaAlSi,-0.3876934025000001
mp-568177,CaAlSiH,-0.4288433890300003
mp-24402,CaAlSiHO5,-3.1180173608188886
mp-6873,CaAlSiO4F,-3.5636148085862507
mp-1213985,CaAlSiO5,-3.184676539843749
mp-888,CaAs,-1.0875891087499998
mp-24359,CaAs(HO)7,-1.7671146547868748
mp-24364,CaAs2(HO2)4,-1.8634118541319995
mp-557180,CaAs2(XeF5)4,-1.9530158269
mp-1213993,CaAs2F12,-2.8015938521186667
mp-758814,CaAs2H6F18,-2.4006273479866667
mp-778977,CaAs2HF13,-2.7268594212700004
mp-1043068,CaAs2WO7,-2.153804386022728
mp-1900,CaAs3,-0.5591538956250002
mp-1227150,CaAs3F15,-2.7769787542289475
mp-3927,CaAsAu,-0.8716708491666664
mp-721328,CaAsH3O5,-2.003627418461
mp-24120,CaAsH5O6,-1.8549188802384613
mp-1191517,CaAsO4,-2.1758276691666656
mp-1198781,CaAsO5,-1.561159626607143
mp-1214130,CaAsO6,-1.01821203125
mp-1215135,CaAsO7,-1.177261500277777
mp-28763,CaAsPd,-0.9441030695833336
mp-28340,CaAsPt,-1.0183343208333335
mvc-5804,CaAsWO5,-2.26799886296875
mp-12723,CaAu,-0.81031631375
mp-443,CaAu2,-0.7124453758333337
mp-1183462,CaAu3,-0.522486286875
mp-1238166,CaB12(H3O)8,-0.6867184829306661
mp-699475,CaB12(H3O2)4,-0.4998180669981826
mp-1009695,CaB2,-0.1396277702777778
mp-696618,CaB2(H2O3)2,-2.3195940279087184
mp-1103502,CaB2(H5N)2,-0.5810763314528891
mp-554736,CaB2(H6O5)2,-1.8701405912709328
mp-866308,CaB2(H7N)2,-0.5234198557249116
mp-1199389,CaB2(HO)8,-2.0022184173575432
mp-1214282,CaB2(HO4)2,-1.855730656774872
mp-12146,CaB2F8,-3.5407241428730303
mp-1198143,CaB2H10O,-0.6348493021988091
mp-24065,CaB2H10O9,-1.9409004742401497
mp-1197534,CaB2H13N3,-0.5836948347385964
mp-1182308,CaB2O9,-1.1316683414236115
mp-28705,CaB2Rh3,-0.6143013901388888
mp-733877,CaB3H13O12,-1.933857118605517
mp-722262,CaB3H3O7,-2.541100252115
mp-560899,CaB3H5O8,-2.328173078858823
mp-720430,CaB3H7O9,-2.1907960574545
mp-1194867,CaB3HO6,-2.8531896128290914
mp-1182657,CaB3O10,-1.6074686560714286
mp-1197422,CaB3O8,-1.9021754247916665
mp-1213975,CaB4,-0.391746949833334
mp-1201177,CaB4(H10N)2,-0.4521753917158027
mp-556214,CaB4O7,-3.0405194863888894
mp-757666,CaB5H3O10,-2.6216752991680696
mp-1214219,CaB5H4O9,-2.281478962845437
mp-1198301,CaB6(H4O7)2,-2.323898030826206
mp-1214321,CaB6(HO4)3,-1.8087051300390915
mp-23701,CaB8H4O15,-2.63830058032369
mp-1200314,CaB8O15,-2.5358879668576386
mp-1238800,CaBC,-0.07175344097222218
mp-1084760,CaBO3,-2.8324675685833336
mp-6667,CaBPO5,-3.1029431044866067
mp-1206909,CaBPd3,-0.5621807868333342
mp-1214917,CaBe(SiO4)3,-1.7867247948529414
mp-1845,CaBe13,-0.09444453553571464
mp-6772,CaBe2(PO4)2,-3.1355304399450548
mp-1048770,CaBe3Co2(SiO4)3,-2.8953876728571437
mp-754739,CaBe3O4,-3.1039870140625
mp-554315,CaBeB2O5,-3.1332328502314812
mp-1227231,CaBeGe,-0.3937888525000002
mp-984632,CaBeO3,-2.24685129525
mp-6899,CaBePO4F,-3.3370597879166066
mp-1200025,CaBePO5,-2.908663233549108
mp-1227218,CaBeSi,-0.31788556083333336
mp-1077466,CaBi2,-0.5323192324999996
mp-696904,CaBi2(CO)2,-0.2947860382142856
mp-556411,CaBi2(CO4)2,-1.962449074230769
mp-1043585,CaBi2(PO5)2,-2.3524303499523795
mp-557371,CaBi2B2O7,-2.5246887660069444
mp-1227361,CaBi2Br2O3,-1.74963180015625
mp-772874,CaBi2O5,-1.956736260052084
mp-1044825,CaBi2P2O9,-2.5817383621811225
mp-866006,CaBi3,-0.3717256606250001
mp-1044049,CaBi3O7,-1.779713623977272
mp-1041219,CaBi3P3O13,-2.4914591952589293
mp-1041411,CaBi4O9,-1.7686571009821432
mp-556615,CaBi6(PO5)4,-2.415522893260369
mp-1047018,CaBiAsO5,-2.1888014260937494
mvc-11848,CaBiAsO6,-1.9214574350000009
mp-568398,CaBiAu,-0.7233144075000002
mp-1096061,CaBiAu2,0.8002257743750003
mp-1213974,CaBiAu4,-0.4158402070833329
mp-631550,CaBiB,0.9443400569444448
mp-556666,CaBiCO4F,-2.5342819943674995
mp-553025,CaBiClO2,-2.437393583652
mvc-13928,CaBiF5,-3.350539671207143
mvc-13472,CaBiF6,-3.0882361887050003
mp-1227238,CaBiIO2,-2.103033991
mp-1227260,CaBiNO5,-1.7591580826412496
mp-755893,CaBiO3,-2.27888617475
mp-977540,CaBiPd2,-0.606455688125001
mp-1042360,CaBiSbO5,-2.2252829915625
mp-1042689,CaBiWO5,-2.282429078906251
mp-1183444,CaBr,-1.28962709875
mp-22888,CaBr2,-2.052342049166666
mp-1213965,CaC,1.134199856875
mp-917,CaC2,0.015802891666666596
mp-1200920,CaC2(NO)2,-1.5483598096085711
mp-11009,CaC2(SN)2,-0.7083194568407143
mp-1214028,CaC2O5,-1.7552092632812508
mp-39536,CaC2S2(OF)6,-2.208866817515589
mp-1022724,CaC4,0.32713288949999964
mp-4124,CaCN2,-1.0829012569191658
mp-3953,CaCO3,-2.7029361910000005
mp-1214358,CaCO4,-1.9455658320601847
mp-1073,CaCd,-0.36611834625000017
mp-1227329,CaCd(CO3)2,-2.24116233175
mp-1204540,CaCd(NO3)4,-0.9439264846492592
mp-1227264,CaCd(WO4)2,-2.318545449375
mp-1444,CaCd2,-0.3400411358333333
mp-1193522,CaCd2(ClO)6,-1.0847498229706671
mp-1093755,CaCd2Ag,0.8891056606250001
mp-1096227,CaCd2In,1.0521261247916671
mp-1105752,CaCd2Pd,-0.5085274762500003
mp-1183517,CaCd3,-0.2683560306250001
mp-760403,CaCd3O4,-1.8801167759375
mp-1229298,CaCd6,-0.20245088928571453
mp-1093688,CaCdAg2,0.9081571543750002
mp-569628,CaCdAu,-0.6291461133333337
mp-866010,CaCdAu2,-0.569709455625
mp-16258,CaCdGe,-0.4978871680555557
mp-866104,CaCdHg2,-0.3725000806250001
mp-753287,CaCdO2,-2.36971357875
mp-1213987,CaCdP2O7,-2.804505588685065
mp-623089,CaCdPb,-0.3882790363888881
mp-1103172,CaCdPd,-0.6047231016666667
mp-1103046,CaCdPt,-0.7205807683333335
mp-1227235,CaCdS2,-1.6453718826562511
mp-568695,CaCdSn,-0.5059056724999998
mp-1228062,CaCe(FeSb3)8,-0.1874423831617653
mp-1227464,CaCe3V4O16,-3.1216641015625
mp-1229253,CaCe4Si3O13,-3.632774032559525
mp-865460,CaCeAg2,-0.19428441437499971
mp-1201269,CaCeAl2FeSi3O13,-3.2843425699404767
mp-1214122,CaCeAlFe2Si3O13,-3.0916629206547617
mp-662583,CaCeC2O6F,-2.886026078668788
mp-1183527,CaCeCd2,-0.2575397143749996
mp-866040,CaCeHg2,-0.4445357168749995
mp-1183677,CaCeIn2,-0.3933523460416666
mp-1099085,CaCeMg14,0.08294498578125031
mp-862907,CaCeMg2,0.04012935812500018
mp-1099117,CaCeMg6,0.09189917531250023
mp-1227511,CaCeMnO4,-3.0279672115657137
mp-1227227,CaCeN2,-1.4147145605649998
mp-756365,CaCeO3,-3.63626447675
mp-1183507,CaCePd2,-0.641968076875
mp-1183467,CaCeRh2,-0.551269321875
mp-1227255,CaCeV2O8,-3.042877854791667
mp-1183614,CaCeZn2,-0.2111252593749997
mp-22904,CaCl2,-2.791336604673333
mp-27546,CaClF,-3.509391688983334
mp-1077231,CaClO,-2.302084487336668
mp-1043203,CaCo(GeO3)2,-2.306979549
mp-1045787,CaCo(PO3)4,-2.712270593392857
mp-1043607,CaCo(Si2O5)2,-3.0665395181250004
mp-18894,CaCo(SiO3)2,-2.9765465675
mvc-10489,CaCo2(CuO4)2,-1.2869817753846156
mvc-12763,CaCo2(P2O7)2,-2.4553887511224484
mvc-10037,CaCo2(PO4)2,-2.5646253587912087
mp-1044185,CaCo2(PO5)2,-2.172276979285714
mvc-11818,CaCo2(SiO3)4,-2.728300462763157
mvc-11964,CaCo2O5,-1.67531718609375
mvc-11307,CaCo2S5,-0.9091775178515632
mp-646538,CaCo2Te3(ClO4)2,-1.7687967504075006
mp-505175,CaCo3(P2O7)2,-2.5255560910714294
mp-1227278,CaCo3(SiO3)4,-2.722414156125
mp-1042545,CaCo3O7,-1.4660799697727265
mp-1047893,CaCo3P3O13,-2.325159713008929
mp-1043073,CaCo4(CuO4)3,-1.3644559301250003
mp-1041397,CaCo4O9,-1.3163580027678574
mvc-2601,CaCo5O7,-1.5620188266346144
mp-1042739,CaCoAs2O7,-2.0705611319318176
mp-510721,CaCoAsHO5,-2.1103042347077783
mvc-5656,CaCoAsO5,-2.10764823140625
mp-1042662,CaCoBi2O7,-1.6703283601136356
mp-1044445,CaCoBiO5,-1.8527413473437493
mvc-14346,CaCoF4,-3.271243007876668
mvc-14161,CaCoF5,-3.1252029290642858
mvc-15833,CaCoF6,-2.79039944433
mp-1213999,CaCoGeO4,-2.3750141139285716
mp-1042596,CaCoMo2O7,-2.1676193877272723
mvc-11274,CaCoN2,0.06287804068500069
mvc-7664,CaCoNi2O7,-1.0612799378409092
mp-1043153,CaCoNiP2O9,-2.3081142623596937
mp-1048132,CaCoO2,-2.2184624687499994
mvc-3994,CaCoO3,-2.0388638977500007
mp-18776,CaCoP2O7,-2.7569326309577917
mp-1042450,CaCoSb2O7,-2.0119403030681817
mp-1018658,CaCoSi,-0.5277202975000002
mvc-11865,CaCoSi2O7,-2.6055516914772725
mp-1043286,CaCoSn2O7,-1.9453797098863632
mvc-14237,CaCoWO6,-2.0159069611111105
mp-1043356,CaCr(GeO3)2,-2.412516658
mp-1045839,CaCr(PO3)4,-2.777543275892858
mp-19441,CaCr(Si2O5)2,-3.1781521129687498
mp-1157256,CaCr(SiO3)2,-3.0788578810000016
mvc-10494,CaCr2(CuO4)2,-1.7837978246153845
mvc-12808,CaCr2(P2O7)2,-2.688344134931971
mp-565963,CaCr2(PO4)2,-2.7674254059065944
mp-1044241,CaCr2(PO5)2,-2.613008496952381
mvc-14147,CaCr2(Si2O5)4,-3.038473838145161
mvc-12285,CaCr2(SiO4)3,-2.5452752619444428