task_id,composition,formation_energy_per_atom
mp-568707,CsPr9Nb(Br5N2)3,-1.849090689390215
mp-11118,CsPrCdSe3,-1.3622413811646912
mp-12494,CsPrCdTe3,-1.1071446810344827
mp-7211,CsPrHgSe3,-1.2349528494980244
mp-1183919,CsPrO3,-2.149409275991379
mp-9037,CsPrS2,-2.124670561082974
mp-12341,CsPrZnTe3,-1.1033114177011492
mp-573316,CsPt2Se3,-0.6657332603313565
mp-1213235,CsPtBr3,-0.7103078287413794
mp-680370,CsPuP2S7,-1.2174066975731916
mp-1225895,CsRb,0.058449831724137875
mp-568508,CsRb(MnCl3)2,-1.8259830593611723
mp-1197177,CsRb14Tl27,-0.10518647323891628
mp-1111785,CsRb2AlBr6,-1.452641865689655
mp-1111710,CsRb2AlCl6,-2.1024394346456554
mp-1111045,CsRb2AlF6,-3.3870619424036548
mp-1111837,CsRb2AlI6,-1.0695934296896552
mp-1111784,CsRb2AsBr6,-1.1833739591896553
mp-1111709,CsRb2AsCl6,-1.7475101341456554
mp-1111463,CsRb2AsF6,-2.7439495899036555
mp-1111832,CsRb2AsI6,-0.8958194491896551
mp-1228855,CsRb2Au7,-0.2689734506896553
mp-1111783,CsRb2AuBr6,-0.9850723606896552
mp-1113412,CsRb2AuCl6,-1.4994065536456551
mp-1185546,CsRb2Bi,-0.28459550547413803
mp-1111460,CsRb2BiF6,-2.8599108949036545
mp-1113428,CsRb2DyCl6,-2.407738420645656
mp-1111782,CsRb2ErCl6,-2.4107382771456556
mp-1111781,CsRb2GaBr6,-1.3090029736896551
mp-1111708,CsRb2GaCl6,-1.9159429106456551
mp-989629,CsRb2GaF6,-3.0264089634036555
mp-1111039,CsRb2GaI6,-0.9676219446896552
mp-1111780,CsRb2GdCl6,-2.396952099645655
mp-1111779,CsRb2InBr6,-1.3486035620229884
mp-1113607,CsRb2InCl6,-1.9388594139789888
mp-989595,CsRb2InF6,-2.9475275307369886
mp-1111394,CsRb2IrF6,-2.471390515403656
mp-1111778,CsRb2LuCl6,-2.4116297686456556
mp-1111043,CsRb2NbF6,-2.944170266403656
mp-8202,CsRb2PdF5,-2.521885048649617
mp-1111455,CsRb2PdF6,-2.440570551403656
mp-1111393,CsRb2RhF6,-2.5682287874036556
mp-984761,CsRb2Sb,-0.3133366954741379
mp-1196297,CsRb2Sb4F15,-2.8552058597612064
mp-1111777,CsRb2SbCl6,-1.827287519145656
mp-1111454,CsRb2SbF6,-2.8279089709036564
mp-1111776,CsRb2ScBr6,-1.714124685689655
mp-1111707,CsRb2ScCl6,-2.347444676645656
mp-1111453,CsRb2ScF6,-3.516072492403655
mp-7380,CsRb2SiF7,-3.3431818618387776
mp-1111452,CsRb2TaF6,-2.896622274403656
mp-1110815,CsRb2TbCl6,-2.4058153789789887
mp-1111392,CsRb2TiF6,-3.2534460210703218
mp-1111830,CsRb2TlBr6,-1.1995080451896551
mp-1111451,CsRb2TlF6,-2.641374162903656
mp-1110814,CsRb2TmCl6,-2.4122283906456548
mp-1113330,CsRb2YBr6,-1.778733784689655
mp-1113327,CsRb2YCl6,-2.4052968626456552
mp-1113328,CsRb2YF6,-3.5140102144036547
mp-1185559,CsRb3,0.05487419068965505
mp-1009547,CsRbAs,-0.13727528718390816
mp-1183931,CsRbAu2,-0.2741060391379309
mp-1191554,CsRbC2,0.3341566477370685
mp-1096526,CsRbI2,-1.1289490841379308
mp-1099231,CsRbMg14O15,-2.574087071138765
mp-1040252,CsRbMg30O31,-2.7606181543698685
mp-1098082,CsRbMg6,0.26906313543103444
mp-1228944,CsRbMnF6,-2.9091266294057467
mp-1213522,CsRbMo3P3O17,-2.446210592869212
mp-1009541,CsRbN,0.6445540703560922
mp-1097089,CsRbNa2,0.5392045783620689
mp-754171,CsRbO,-1.092096757600575
mp-1183926,CsRbO3,-0.4484482620603451
mp-1213079,CsRbSO4,-2.3513272265163168
mp-1213588,CsRbZr6BCl15,-2.1874997959216
mp-572546,CsRe(Cl2O)2,-1.726572246155862
mp-1228026,CsRe2OsSe4Cl3,-0.9582333179874444
mp-541867,CsRe3(O3F5)2,-2.5367690011553448
mp-683890,CsRe3(S2Br)2,-1.1088672072456909
mp-1202357,CsRe3(Se2Br)2,-0.7425221595581902
mp-669564,CsRe6S8Br3,-1.0137070432614927
mp-680185,CsRe6Se8I3,-0.5428603616642715
mp-27783,CsReBr4,-0.8500489397844829
mp-568854,CsReBrCl3,-1.3629377133589269
mp-567702,CsReCl4,-1.5265248550133714
mp-9632,CsReF6,-2.745302872605862
mp-29842,CsReF8,-2.6149259093226886
mp-1097067,CsReN2,-0.393078474929224
mp-17621,CsReO4,-2.375797911034484
mp-557451,CsReOF6,-2.6844805927329887
mp-1199798,CsReS2,-1.1333193087913085
mp-1198675,CsRu2C8(ClO4)2,-0.09227615834413834
mp-8015,CsRuF6,-2.4861892110433623
mp-1118911,CsRuN2,-0.04827878111672418
mp-1183971,CsRuO3,-1.2840320629913793
mp-29266,CsS,-1.2660285101346984
mp-541750,CsS2N(O2F)2,-1.9346346171591893
mp-556600,CsS2N3O4,-1.2902387608971906
mp-1188913,CsS3,-1.0410987452235996
mp-6368,CsSO2F,-2.33365374929188
mp-561681,CsSO3,-2.22271007280388
mp-622195,CsSO3F,-2.3904503500349
mp-1103912,CsSO4,-2.013386810878233
mp-554822,CsSb(PO4)2,-2.4875022837910508
mp-1195448,CsSb(SO4)2,-2.100704588069325
mp-556061,CsSb2F11,-2.8105966101283504
mp-556583,CsSb2F7,-2.8283954009536894
mp-1197959,CsSb2PO8,-2.2413463363208126
mp-683925,CsSb3F16,-2.750641618137345
mp-1213089,CsSb4F13,-2.7034793498153817
mp-1194090,CsSbC6Cl5,0.009305333076392449
mp-567583,CsSbCl6,-1.5244946494708622
mp-23576,CsSbClF3,-2.608007758839483
mp-29296,CsSbF4,-2.8872005812028165
mp-9636,CsSbF6,-2.9452801322933615
mp-510273,CsSbO2,-1.8696673221767242
mp-1185561,CsSbO3,-1.6302482049913791
mp-667360,CsSbOF4,-2.7735817851976527
mp-1181770,CsSbPO4F3,-2.600644444441976
mp-1213195,CsSbS(O2F)2,-2.3810771555721555
mp-28701,CsSbS6,-0.8692871047602364
mp-505281,CsSbS6(O3F)6,-2.077665590475685
mp-680235,CsSbTe6(OF5)6,-2.311782017145612
mp-1225923,CsSbTeO6,-1.8396866643007663
mp-1225944,CsSbWO6,-2.1818591654118773
mp-1213159,CsSc(SO4)2,-2.6416309895276577
mp-1194629,CsSc(SeO3)2,-2.18210005758944
mp-1213157,CsSc(WO4)2,-2.6014491721839086
mp-607477,CsSc3(CuTe3)2,-0.9825494730172422
mp-1229290,CsSc3H6(Se3O10)2,-1.9426737318608165
mp-1225939,CsScAgF6,-3.0830180548163217
mp-542557,CsScAs2(HO4)2,-2.1825199720319204
mp-699401,CsScAsO4F,-2.3717120124871114
mp-27359,CsScCl3,-2.32723168819738
mp-1225961,CsScCuF6,-3.215719744816322
mp-754826,CsScO2,-2.9924618934267238
mp-543046,CsScP2(HO4)2,-2.7365063278737574
mp-1058331,CsSe,-0.5419578924003234
mp-1201920,CsSe4,-0.4441120062413795
mp-998415,CsSeBr3,-0.8010356809601291
mp-1102197,CsSeO4,-1.3268079833001067
mp-1370,CsSi,-0.0609672568534485
mp-1019719,CsSi2BO6,-3.0841831330373566
mp-1199473,CsSi2H18C6N,-0.3837462768748888
mp-1226125,CsSi2HO5,-2.8218364265085447
mp-1213518,CsSi2Mo3P6O25,-2.70898560244092
mp-581955,CsSi2SbO7,-2.7480167231021424
mp-758180,CsSi3HO7,-2.9348676777980764
mp-558426,CsSiBiS4,-1.1955105271367006
mp-1147745,CsSiI3,-0.705940105241379
mp-1226548,CsSiSbO5,-2.536353300463361
mp-570957,CsSiTe3,-0.4692338222413796
mp-1213306,CsSm(MoO4)2,-2.6080555261422407
mp-1213498,CsSm(NbBr3)6,-1.1516821912964188
mp-1226438,CsSm(PO3)4,-2.9456974923487964
mp-1213147,CsSm(WO4)2,-2.6430021086422406
mp-1190516,CsSm2Ag3Te5,-0.8583913942006273
mp-1213272,CsSm2Cl7,-2.69333272090269
mp-1191238,CsSm2Cu3Se5,-1.056488462197786
mp-16445,CsSm2CuSe4,-1.4977045825727373
mp-1213362,CsSm2I5,-1.2010541873383622
mp-1225973,CsSm2Ti2NbO10,-3.417182775440013
mp-1213166,CsSmBr3,-1.642652450241379
mp-12497,CsSmCdTe3,-1.1014678431178158
mp-567939,CsSmCl3,-2.2791964236973787
mp-556979,CsSmGeS4,-1.659393761065272
mp-1192812,CsSmGeSe4,-1.1625591536545572
mp-1205876,CsSmI3,-1.2974988047413796
mp-574651,CsSmMnSe3,-1.3340150832480238
mp-7977,CsSmO2,-2.9075901465517235
mp-1184022,CsSmO3,-2.21006920449138
mp-9082,CsSmS2,-2.141926311707974
mp-561635,CsSmSiS4,-1.8295970999938425
mp-12343,CsSmZnTe3,-1.1049538997844828
mp-571056,CsSn,-0.3044343307596984
mp-23467,CsSn2Br5,-1.0693079039008615
mp-30164,CsSn2Cl5,-1.653055136563362
mp-27214,CsSnBr3,-1.2397779702413794
mp-27394,CsSnCl3,-1.7989882211973791
mp-1105915,CsSnF3,-2.8000968689553782
mp-27381,CsSnI3,-0.9563364572413796
mp-984745,CsSnO3,-1.5460945149913792
mp-1193634,CsSnPS4,-1.0140761770856783
mp-561710,CsSnS3,-1.1043257946788791
mp-613162,CsSnSe3,-0.6837075853976291
mp-1213276,CsSr2I5,-1.6733763870258618
mp-22264,CsSr2Nb3O10,-3.1700415036691814
mp-7181,CsSr2Ta3O10,-3.37458147679418
mp-1184035,CsSr3,0.16864406594827575
mp-1213104,CsSrBr3,-2.0356598287413794
mp-1213084,CsSrCl3,-2.65390685369738
mp-8397,CsSrF3,-3.6911400989553798
mp-1080232,CsSrI3,-1.6702804302413792
mp-29228,CsSrN9,-0.4769055556933534
mp-1183972,CsSrO3,-1.4015331999913805
mp-995215,CsSrSiHO4,-2.701704798103361
mp-1213360,CsSrTa6Cl18,-1.900959403841804
mp-9309,CsTa(BO3)2,-3.031774243704024
mp-505322,CsTa(CuTe2)2,-0.4721968332758619
mp-559118,CsTa(PO4)2,-2.9739177717077165
mp-557186,CsTa2P5O18,-2.8986562357469694
mp-1227943,CsTa4P3S19,-1.163153333882333
mp-680159,CsTa6PbCl18,-1.7494368848033424
mp-1213077,CsTaCl6,-2.019418139470861
mp-705413,CsTaCo(OF2)2,-3.042666598162989
mp-865606,CsTaGeS5,-1.277964210189925
mp-606510,CsTaI6,-0.7441433332758618
mp-34293,CsTaN2,-1.1027528602417247
mp-1185552,CsTaO3,-2.797106057991379
mp-555592,CsTaPS6,-1.216886833219417
mp-1225870,CsTaS3,-1.5400846096788796
mp-685607,CsTaSe3,-0.9848940083976288
mp-1194848,CsTaV2O8,-2.7240376611422406
mp-1225854,CsTaWO6,-2.7743085859674324
mp-1213293,CsTb(MoO4)2,-2.6304528778783522
mp-1213369,CsTb(NbBr3)6,-1.1491546136361623
mp-17128,CsTb(PO3)4,-2.9439750001728697
mp-1213324,CsTb(WO4)2,-2.651348478711685
mp-542164,CsTb2Ag3Se5,-1.1306089028038466
mp-1190323,CsTb2Ag3Te5,-0.8886889170794148
mp-1213261,CsTb2Cl7,-2.6924572403193556
mp-6182,CsTb2Cu3Se5,-1.1194614796220277
mp-11121,CsTbCdSe3,-1.3648137742202475
mp-12495,CsTbCdTe3,-1.0913348932567049
mp-28449,CsTbF5,-3.4493724250700324
mp-1213063,CsTbMnSe3,-1.3390238592202472
mp-1185551,CsTbO3,-2.269490050658046
mp-9085,CsTbS2,-2.155458186916308
mp-1194142,CsTbSiS4,-1.823782748327176
mp-573710,CsTbZnSe3,-1.418237972553581
mp-1198737,CsTc3(Se2Br)2,-0.8285007425581903
mp-556752,CsTcNClO4,-0.8944772096058617
mp-27250,CsTcO4,-2.185719741867816
mp-8361,CsTe,-0.8466072118534487
mp-1178386,CsTe4,-0.3895851407413794
mp-1205022,CsTe7,-0.21551920046336195
mp-18193,CsTe7Mo6,-0.3826219593719214
mp-573755,CsTeAu,-0.7122657704022993
mp-541628,CsTeF5,-2.768910894950985
mp-1183976,CsTeO3,-1.4399795499913792
mp-9462,CsTeSe3,-0.4701016973976294
mp-1198898,CsTh2(PO4)3,-3.363198026257526
mp-1200592,CsThMo2ClO8,-2.6470552372666845
mp-1183997,CsThO3,-2.9914861299913795
mp-778180,CsTi(NbCl3)6,-1.7669696279443683
mp-645687,CsTi(PS4)2,-1.149594593929941
mp-1228812,CsTi2(CuTe4)2,-0.5101097738107868
mp-1225859,CsTi2(OF)3,-3.474268577428914
mp-505663,CsTi2Cl7,-2.1270005582360234
mp-30951,CsTi2I7,-0.842803842454023
mp-1197745,CsTi2P3(O5F2)2,-3.143292627661439
mp-1225908,CsTi3AlO8,-3.289475673554377
mp-561121,CsTi3P5O19,-3.0246122950239718
mp-541318,CsTi3Si2P6O25,-3.0204408764949733
mp-867568,CsTi6O12,-3.4005369421687854
mp-1197107,CsTi8F33,-3.717470046638339
mp-867522,CsTi8O16,-3.4233578803816087
mp-1225829,CsTiAlO4,-3.236443503981937
mp-541956,CsTiAsO5,-2.557311531296696
mp-22962,CsTiBr3,-1.3988821775747122
mp-40502,CsTiCoOF5,-3.1463334888970618
mp-570706,CsTiCu3Se4,-0.7443663174720625
mp-677489,CsTiCuOF5,-2.945860477230396
mp-1238514,CsTiH10C4O13,-1.6563720001835716
mp-699488,CsTiH24(SO10)2,-1.6429769324558032
mp-567698,CsTiI3,-1.038214663574713
mp-705451,CsTiMnOF5,-3.3493301901148405
mp-684745,CsTiNb(O2F)2,-3.2718557472503966
mp-41473,CsTiNiOF5,-3.0612481455637286
mp-1183977,CsTiO3,-2.377074105324713
mp-17359,CsTiP2O7,-2.8877395812190256
mp-676448,CsTiZnOF5,-3.2251180711192853
mp-1193610,CsTl(SO5)2,-1.4140886933451355
mp-1095880,CsTl2Bi,0.6014122921982759
mp-1225957,CsTlAgF6,-2.143005789260766
mp-1112177,CsTlBr3,-1.12951817824138
mp-573702,CsTlBr4,-0.9916482947844828
mp-1112176,CsTlCl3,-1.6709877641973798
mp-1228857,CsTlCuF6,-2.278219519816321
mp-1078203,CsTlF3,-2.5512215229553794
mp-1213164,CsTlF4,-2.521027075994484
mp-1112542,CsTlI3,-0.8564534552413793
mp-28332,CsTlI4,-0.7435732864511498
mp-1205877,CsTlO,-1.1718893974856317
mp-1185544,CsTlO3,-0.77340116899138
mp-1213346,CsTm(MoO4)2,-2.622071031350574
mp-1213326,CsTm(NbBr3)6,-1.1430453575464188
mp-1213213,CsTm(WO4)2,-2.6585914630172405
mp-1213262,CsTm2Cl7,-2.6706768756526897
mp-581749,CsTm2Cu3Se5,-1.1035313453796038
mp-1206103,CsTmBr3,-1.5716008152413792
mp-12496,CsTmCdTe3,-1.063902494367816
mp-579768,CsTmCl3,-2.21834281719738
mp-561722,CsTmCoS3,-1.6244818747323997
mp-1207081,CsTmH3,-0.2519187524133795
mp-1213177,CsTmI3,-1.1910162702413791
mp-1213648,CsTmMnSe3,-1.3211462969980243
mp-753799,CsTmO2,-3.0149641959267233
mp-1213300,CsTmP2O7,-3.1823139506129645
mp-541024,CsTmP4(H2O3)6,-2.1590795344643983
mp-1078990,CsTmS2,-2.146813991082975
mp-556414,CsTmSeCl2O3,-2.450838503446331
mp-1194326,CsTmSiS4,-1.8065085614224148
mp-505713,CsTmZnSe3,-1.4092284469980243
mp-1197993,CsU(OF)3,-2.8871996648158618
mp-1229063,CsU(PO4)2,-3.0255828617077167
mp-1197277,CsU(SeO4)2,-2.1418097042411994
mp-1197882,CsU2(AsO9)2,-1.6737507374437788
mp-1200035,CsU2(PO4)4,-2.903791434555578
mp-1225971,CsU2F9,-3.8059591159930752
mp-605374,CsU2H3(C2O7)2,-2.265630778940288
mp-7322,CsU2O6,-3.521101293189656
mp-556690,CsU6F25,-3.921581488623653
mp-13346,CsUAgS3,-1.466795565565733
mp-510662,CsUAgSe3,-1.0355931036646908
mp-1190122,CsUCl4O3,-1.8631939547774328
mp-697804,CsUCrO6,-2.794443188745212
mp-13348,CsUCuS3,-1.5455921563990664
mp-7151,CsUCuSe3,-1.071189144498024
mp-20219,CsUCuTe3,-0.6538058935344827
mp-7489,CsUF6,-3.8140994329183617
mp-559852,CsUGa(PO5)2,-2.956703755199507
mp-541035,CsUN3O11,-1.7986977316935553
mp-541096,CsUNbO6,-3.2481157259674327
mp-865424,CsUO3,-3.22357292199138
mp-1199474,CsUP2(HO4)2,-2.420059332159472
mp-572741,CsUP3O11,-2.9293100777428425
mp-1194222,CsUPNO9,-2.401673296306136
mp-1225841,CsUSbO6,-2.7981947298563217
mp-1197456,CsUTe6,-0.5392271885883617
mp-617298,CsUTiTe5,-0.7939943909841958
mp-699604,CsUV3O11,-2.7004934931223055
mp-616653,CsUVO6,-3.035840955689656
mp-619820,CsV(MoO4)2,-2.2477615330172407
mp-1197526,CsV(PO3)4,-2.6564674154506482
mp-565797,CsV(SO4)2,-2.314848348694325
mp-540690,CsV2O5,-2.464581733119612
mp-541176,CsV2P5O16,-2.7160318702883828
mp-1070912,CsV2S2O,-1.5533180442636494
mp-1196047,CsV2SbO8,-2.2650102573922406
mp-25155,CsV3(SeO6)2,-2.0023554574108
mp-541976,CsV3(TeO6)2,-2.075325092289272
mp-1200471,CsV3B2P4(H4O11)2,-2.3613846806142917
mp-651814,CsV3O8,-2.3881683188505733
mp-985699,CsV5S8,-1.3598514763362073
mp-23038,CsVBr3,-1.2638368772413793
mp-1147638,CsVC6,0.8994901314116373
mp-22977,CsVCl3,-1.8848877381973792
mp-1228876,CsVCoF6,-2.955007454816321
mp-1229021,CsVCuF6,-2.770892677038544
mp-1192215,CsVF4,-3.219687002244483
mp-1228886,CsVFeF6,-3.0856886731496562
mp-863295,CsVGa(PO5)2,-2.3880498763661744
mp-743986,CsVH12(C2O7)2,-1.5854812466295902
mp-744223,CsVH24(SO10)2,-1.6175901839314974
mp-22991,CsVI3,-0.9130042422413794
mp-1029293,CsVN2,-0.9255373639917241
mp-1228899,CsVNiF6,-2.8814840298163222
mp-540778,CsVO3,-2.4283615574913795
mp-1191684,CsVOF3,-2.9882540847544834
mp-1193015,CsVOF4,-2.9683720538881277
mp-652774,CsVP2O7,-2.743027005612964
mp-12324,CsVP2S7,-1.0302494808118288
mp-1197494,CsVP3HO10,-2.6148445002347165
mp-1198694,CsVPO5,-2.6658691630749694
mp-1181965,CsVSO6,-2.3039157454466013
mp-1201217,CsVSeO5,-2.0121739376313306
mp-1225864,CsVTeO6,-1.9874029237452124
mp-1225856,CsVWO6,-2.316415800411877
mp-1225904,CsVZn(PO3)6,-2.629938809132002
mp-1225824,CsVZnF6,-3.045569057038543
mp-582076,CsW3Br3Cl4,-1.0837685074315353
mp-1226055,CsW3Br7,-0.7423383251097174
mp-1213572,CsW3Cl7,-1.3490010269569908
mp-1213488,CsW3I3Cl4,-0.9386963517497188
mp-1197070,CsWF7,-2.9378690805041003
mp-651768,CsXe3O3F13,-0.808600699646345
mp-29513,CsXeF7,-1.4193983227263218
mp-984762,CsY,0.7180081818965518
mp-1204501,CsY(BH4)4,-0.4264953061724335
mp-1213231,CsY(MoO4)2,-2.648291033017241
mp-1213375,CsY(NbBr3)6,-1.148553590046419
mp-1019725,CsY(PO3)4,-2.9328998417932417
mp-1195090,CsY(SeO3)2,-2.2149923933394398
mp-1213335,CsY(WO4)2,-2.643063710933909
mp-669309,CsY10(C2I9)2,-1.2537076382183907
mp-1213252,CsY2Cl7,-2.681498077652689
mp-1199735,CsY2CuTe4,-1.1130634986925283
mp-771163,CsY3O5,-3.5258410888841003
mp-1213356,CsYC4O9,-1.9069438468304605
mp-1035953,CsYMg14O16,-2.7475979614439656
mp-1037012,CsYMg30O32,-2.9232142196282327
mp-1213646,CsYMnSe3,-1.3366452919980247
mp-541044,CsYO2,-2.9616885984267234
mp-541412,CsYP2O7,-3.1593416908402374
mp-555160,CsYSeCl2O3,-2.434004658133831
mp-1103744,CsYZnTe3,-1.103528813534482
mp-1213408,CsYb(MoO4)2,-2.3727817763505743
mp-1213149,CsYb(WO4)2,-2.3899345942672405
mp-1190671,CsYb2Cu3Se5,-0.9483379262886948
mp-1183999,CsYb3,0.23460196844827585
mp-615776,CsYb3F10,-3.3125880773647784
mp-568594,CsYb3Se4,-1.6715975281977367
mp-568005,CsYbBr3,-2.0324460052413795
mp-1070599,CsYbCl3,-2.69146069719738
mp-561685,CsYbCoS3,-1.4091403563990663
mp-8398,CsYbF3,-3.91006510295538
mp-1206323,CsYbH3,-0.4584956404133792
mp-1185576,CsYbI3,-1.6272773077413791
mp-1185564,CsYbO3,-1.6284564279913796
mp-18423,CsYbP2O7,-2.8816095112947835
mp-9090,CsYbS2,-1.601999496082974
mp-12325,CsYbSe2,-1.2656617583485992
mp-1213051,CsYbZnTe3,-0.9291097335344828
mp-699213,CsZn2P2HO8,-2.3951227931509007
mp-1200520,CsZn3(PO4)3,-2.281221289086077
mp-1019723,CsZn4(BO3)3,-2.3380818924974647
mp-1084778,CsZn4As3,-0.2926958964008621
mp-1101093,CsZn4P3,-0.2968257465794335
mp-1228983,CsZn8,0.09689777931034507
mp-630391,CsZnAgC4(SN)4,-0.3520208896317929
mp-560244,CsZnB(PO4)2,-2.6748491578584046
mp-1225874,CsZnCoF6,-2.6114142670385436
mp-1225833,CsZnFeF6,-2.849824990371877
mp-1228774,CsZnNiF6,-2.4034583798163216
mp-557693,CsZnPO4,-2.522696783692822
mp-555862,CsZr(NO3)5,-1.4491354306525854
mp-1227847,CsZr18(PI14)3,-1.0455670705880542
mp-560091,CsZr2(PO4)3,-3.1990741270908587
mp-1019720,CsZr2Al(PO4)4,-3.2042214006157628
mp-571410,CsZr6BI14,-1.0551399967215265
mp-1213455,CsZr6CCl15,-2.1935351673416044
mp-582176,CsZr6CI14,-1.0379735974980415
mp-1213469,CsZr6MnCl14,-2.04887600667486
mp-570192,CsZr6MnI14,-0.97375982096395
mp-1181558,CsZrCu3Se4,-0.5471524045090987
mp-7152,CsZrCuSe3,-1.1268708578313582
mp-1189092,CsZrOF5,-3.1093164129258617
mp-1189615,CsZrUTe5,-0.8272734695258617
mp-1178387,Cu(AgO)2,-0.5088674564999998
mp-22271,Cu(AsO2)2,-1.4136150385714288
mp-4870,Cu(BO2)2,-2.3003346126190483
mp-1225844,Cu(Bi4Ir)3,0.029273163124999613
mp-505042,Cu(BiO2)2,-1.4581682410714285
mp-1069055,Cu(BrN)2,1.5343421790480007
mp-1181522,Cu(BrN3)2,1.9704332117466683
mp-1202343,Cu(BrO4)2,-0.1154158870454548
mp-1213509,Cu(BrO6)2,0.3743164928333338
mp-556202,Cu(CO)4,-0.817486802222223
mp-1192806,Cu(CO2)4,-1.3169416973076922
mp-1201134,Cu(CO3)2,-0.7946701830555559
mp-1181749,Cu(CO4)2,-0.7607024043181823
mp-1213144,Cu(Cl2O)2,-0.13005877222000045
mp-1079516,Cu(ClO)2,-0.099680819804
mp-1202347,Cu(ClO7)2,0.1189010823125491
mp-1213134,Cu(HCl)2,-0.06495552375200013
mp-505105,Cu(HO)2,-1.107603445947999
mp-1232320,Cu(HgN)2,1.1683969490480002
mp-1079602,Cu(IN)4,1.1694744556088892
mp-1205922,Cu(IN3)2,2.4995497873022234
mp-556582,Cu(IO3)2,-0.8345361352777777
mp-15065,Cu(IrS2)2,-0.7436924408928586
mp-675745,Cu(Mo3S4)2,-0.9760968948333328
mp-1104894,Cu(Mo3Se4)2,-0.4417876645833331
mp-1203008,Cu(N2O3)2,0.10160464436181756
mp-1079782,Cu(N3Cl)2,2.7214503865777786
mp-1102920,Cu(N3O2)2,1.1762708564290911
mp-1104198,Cu(NCl2)2,0.9505129460285718
mp-1103827,Cu(NF2)2,0.34743336292571464
mp-1213366,Cu(NO)3,0.8416659598728568
mp-662543,Cu(NO3)2,-0.8957669635844449
mp-769689,Cu(NiO2)2,-0.8354547728571434
mp-17224,Cu(PO3)2,-2.242237754365079
mp-540496,Cu(PO3)3,-2.2076219457829684
mp-28888,Cu(PtS2)2,-0.7090000316071438
mp-4409,Cu(RhO2)2,-1.064402825714286
mp-15613,Cu(RhS2)2,-0.8123243837500007
mp-15614,Cu(RhSe2)2,-0.3845604270535716
mp-756132,Cu(SbO2)2,-1.4868678003571418
mp-5831,Cu(SbO3)2,-1.6533860724999998
mp-1184041,Cu(SnS2)4,-0.7630232763461541
mp-756573,Cu(TeO3)4,-1.2596534614705892
mp-757768,Cu10Bi25O48,-1.4642479363253011
mp-1226169,Cu10Hg2Sb4S13,-0.4951601528556035
mp-1225831,Cu10N3,0.1955471156046154
mp-30597,Cu10Sn3,0.007458556923076287
mp-1105864,Cu11PdN4,0.2277733875300001
mp-675278,Cu11S16,-0.3088423335185184
mp-684964,Cu11S20,-0.2664180648790326
mp-30596,Cu11Sb3,0.06144925392857153
mp-504753,Cu12As4S13,-0.5051135818211208
mp-1226426,Cu12Mo3S5O36,-1.5213221711662956
mp-1188468,Cu12PdN4,0.3641158094400017
mp-1225921,Cu12Sb3AsS16,-0.5446325664062499
mp-647164,Cu12Sb4S13,-0.5251928397521549
mp-684621,Cu13I15,-0.13180123571428531
mp-32857,Cu13Se8,-0.05267539375000007
mp-685100,Cu14I19,-0.0703145633333333
mp-14266,Cu15Si4,-0.07412306578947442
mp-685158,Cu16I19,-0.12778021942857146
mp-684605,Cu17Se10,-0.020223803553240258
mp-684970,Cu19Se11,-0.008603428151041707
mp-1225980,Cu19Sn16,-0.009967688285714107
mp-1199685,Cu2(ReS2)3,-0.7389857047159102
mp-1213635,Cu2(ReSe2)3,-0.2587381171875
mp-768451,Cu2(SO4)3,-1.5881979504227939