task_id,pretty_formula,band_gap
mp-13755,BaNa(PO3)3,5.3055
mp-11820,BaNa2,0.00969999999999982
mp-1215058,BaNa2(Ge4O9)2,3.0309
mp-556806,BaNa2(SiO3)2,4.1743000000000015
mp-6875,BaNa2Al4(SiO4)4,4.7346
mp-1096333,BaNa2Ca,0.5851999999999999
mp-1227924,BaNa2Fe4F12,2.9711
mp-861906,BaNa2Mg(PO4)2,5.0412
mp-559586,BaNa2Nd2Si4CO15,4.8248
mp-755391,BaNa2O2,1.5152
mp-1097658,BaNa2Sr,0.5687999999999998
mp-1227953,BaNa2Sr6Al6(OF16)2,0.8071000000000002
mp-561352,BaNa2Ti2(Si2O7)2,3.3673
mp-505125,BaNa2V2CuO8,0.6910000000000001
mp-771331,BaNa3PCO7,3.9896
mp-653631,BaNa4Cu3F12,0.4248
mp-756084,BaNa4O3,1.5876
mp-1228057,BaNa4Ti2Si10(BO15)2,3.4841999999999995
mp-693753,BaNa5Ca7P6(O8F)3,4.8168000000000015
mp-694942,BaNa5LiCo5F18,2.2675
mp-755322,BaNa6O4,1.5878
mp-1201530,BaNa6Th(CO4)6,0.209
mp-15515,BaNaAlF6,6.981
mp-1199471,BaNaAlMo6(H13O17)2,3.3941
mp-1019554,BaNaB5O9,5.0076
mp-6660,BaNaBO3,3.6487
mp-31235,BaNaBi,0.2354999999999996
mp-542264,BaNaCe2C4O12F,0.24960000000000004
mp-556890,BaNaCr2F9,3.5693
mp-1214564,BaNaCrF6,4.0733
mp-1019735,BaNaEu(SiO3)3,0.0024999999999999467
mp-554149,BaNaFe2F9,3.7199
mp-735783,BaNaFe4P6H3O25,0.2597999999999999
mp-1214635,BaNaFeF6,4.0403
mp-1214538,BaNaGaF6,6.0916
mp-862693,BaNaH3Pd,1.4378000000000002
mp-1182061,BaNaH6Ir,3.3045
mp-677179,BaNaIn2(PO4)3,3.3426
mp-1019555,BaNaLi3(BO2)6,5.2185
mp-14353,BaNaNd(GeO3)3,3.4575
mp-13791,BaNaNd(SiO3)3,4.7404
mp-559384,BaNaNdSi2O7,4.4466
mp-9732,BaNaP,0.8555000000000001
mp-695982,BaNaP3(HO2)6,5.1442999999999985
mp-866302,BaNaP3H3(NO2)3,4.822
mp-1227883,BaNaPO4,4.6078
mp-961774,BaNaSb,0.7372000000000001
mp-1182298,BaNaSc(BO3)2,3.8225
mp-866298,BaNaScSi2O7,4.6606
mp-1227913,BaNaSr3(SbO4)3,1.9231
mp-1215092,BaNaTiF6,0.1867000000000001
mp-1227835,BaNaTiNbO6,1.5576
mp-1214563,BaNaVF6,2.4674
mp-1227892,BaNaVS4,1.5476000000000003
mp-1182342,BaNaY(BO3)2,3.3011
mp-561234,BaNaZr2F11,5.6991999999999985
mp-560732,BaNaZrF7,6.0585
mp-555764,BaNb10SiO19,0.014800000000000146
mp-1021950,BaNb2(FeO3)4,2.1656
mp-555867,BaNb2Bi2O9,2.2153
mp-705895,BaNb2Fe2(PO4)6,2.4458
mp-1022731,BaNb2Fe2O9,1.2317
mp-28150,BaNb2O6,2.6143
mp-1188841,BaNb2V2O11,2.1157
mp-1192672,BaNb2Xe5F22,2.5845
mp-776461,BaNb3NO7,1.2513
mp-1096881,BaNb4(FeO7)2,2.8389
mp-1228636,BaNb4Bi4PbO18,1.7395999999999998
mp-1120749,BaNb4O11,2.6604
mp-1228615,BaNb6Bi6Pb2O27,1.2059999999999995
mp-1214450,BaNb6HO16,1.6273
mp-1191444,BaNb6O17,1.2101
mp-1205468,BaNb8O14,0.31460000000000043
mp-1214520,BaNbI5O16,2.895
mp-1227828,BaNbNO2,0.05010000000000003
mp-560794,BaNbTePO8,2.7977
mp-1195589,BaNd(SnS3)2,0.3648999999999996
mp-622521,BaNd2(MoO4)4,3.4405
mp-17836,BaNd2BeO5,3.8755
mp-1214581,BaNd2Cu(MoO4)4,0.07289999999999974
mp-6704,BaNd2CuO5,0.4194
mp-1197371,BaNd2In2O7,2.3866
mp-2892,BaNd2O4,3.0973
mp-8514,BaNd2PdO5,2.2191
mp-556525,BaNd2PtO5,2.5164000000000004
mp-6285,BaNd2Ti3O10,2.4173000000000004
mp-6468,BaNd2ZnO5,3.056
mp-16455,BaNd2ZnS5,1.1406999999999994
mp-1227932,BaNd3(CoO3)4,0.06899999999999995
mp-1228268,BaNd4(CoO3)5,0.14290000000000047
mp-1095616,BaNdAgS3,1.7466999999999997
mp-1214402,BaNdCuTe3,0.6130000000000004
mp-1182187,BaNdFe2O5,0.8388
mp-541281,BaNdGaO4,3.733
mp-1192583,BaNdInO4,2.5671000000000004
mp-41829,BaNdNiSbO6,2.5993000000000004
mp-19388,BaNi2(AsO4)2,2.8416
mp-18909,BaNi2(PO4)2,3.7407
mp-1048486,BaNi4O7,0.9855999999999998
mp-1147570,BaNiC4Br,0.7667000000000002
mp-555321,BaNiF4,4.6572
mp-613910,BaNiF6,0.4727
mp-18943,BaNiO2,2.3034
mp-19241,BaNiO3,1.4754999999999998
mp-1214404,BaNiP2O7,3.6337
mp-1190517,BaNp(HO2)3,1.4033000000000002
mp-1191675,BaNp(PO4)2,0.234
mp-1214391,BaNpO4,0.3123000000000005
mp-510571,BaNpPH2O7,0.03410000000000046
mp-1105,BaO2,2.2284
mp-1182169,BaO6,0.13090000000000002
mp-1182621,BaOsO9,0.0979
mp-28035,BaP10,1.2913999999999994
mp-1105095,BaP2,0.5568
mp-1214602,BaP2(HO)2,0.9613
mp-642646,BaP2(HO)4,5.2848
mp-706400,BaP2(HO2)4,5.5979
mp-1214662,BaP2(HO3)2,2.987
mp-707120,BaP2(HO4)2,0.4458
mp-581294,BaP2(XeF5)4,2.6848
mp-1214387,BaP2O5,0.7578
mp-505234,BaP2PbO7,4.3622
mp-1214414,BaP2PdO7,0.7004999999999999
mp-1182371,BaP2S2O9,0.3997999999999999
mp-7808,BaP3,0.5735000000000001
mp-1236856,BaP3HNO9,2.0728
mp-1182641,BaP3NO10,0.22279999999999994
mp-1202402,BaP3NO11,2.447
mp-28373,BaP3Pt2,0.12739999999999976
mp-578781,BaP4(W2O7)8,0.3454999999999999
mp-779518,BaP4O11,5.2234
mp-1204631,BaP6H16(N2O9)2,5.0964
mp-30275,BaP8,0.8862999999999994
mp-698163,BaPHO4,5.3765
mp-1197491,BaPO3F,5.2432
mp-11006,BaPS3,3.1048000000000004
mp-11008,BaPSe3,2.1557000000000004
mp-1227878,BaPb(SO4)2,4.2041
mp-1228616,BaPb2(SO4)3,4.249700000000002
mp-554116,BaPb2BrF5,3.2598
mp-560874,BaPb2C2(O3F)2,4.0572
mp-554245,BaPb2IF5,2.8424
mp-1228119,BaPb3(NO3)8,3.6001000000000003
mp-1214389,BaPb3O4,2.0022
mp-19799,BaPbF6,3.0264
mp-20461,BaPbO3,0.1924999999999999
mp-1008505,BaPd,0.026799999999999716
mp-1205352,BaPd(SeO3)2,1.5290000000000001
mp-30102,BaPdCl4,1.2578
mp-12623,BaPdF4,1.3729
mp-1182093,BaPdO5,0.5244
mp-4009,BaPdS2,0.3844000000000003
mp-1194578,BaPr(SnS3)2,0.3689
mp-20212,BaPr2CuO5,0.4272
mp-1203636,BaPr2In2O7,2.4250000000000003
mp-16124,BaPr2MnS5,0.4663999999999993
mp-17412,BaPr2O4,3.0743
mp-9759,BaPr2PdO5,2.2471
mp-1195909,BaPr2Sc2O7,3.5422
mp-557074,BaPr2Ti3O10,1.9490000000000005
mp-16454,BaPr2ZnS5,1.1719999999999997
mp-1227893,BaPr3(NiO4)2,0.3595000000000006
mp-1214381,BaPrCuTe3,0.6455000000000002
mp-1227832,BaPrNbCoO6,1.1725000000000003
mp-1227898,BaPrTaCoO6,2.3107
mp-558588,BaPt2S3,1.3299999999999996
mp-1105887,BaPtO7,1.4588
mp-740752,BaRe2(H2O3)4,4.0226
mp-1215113,BaRe2C3N6O11,0.595
mp-722880,BaRe2H12C3N6O11,2.9466
mp-695984,BaRe2H2O9,3.8947
mp-1214641,BaRe2O9,0.37780000000000014
mp-1193342,BaRe3S4O7,0.017600000000000282
mp-989637,BaReN3,1.7855000000000003
mp-1194442,BaRu2Xe5F22,1.3200000000000005
mp-1201605,BaRuO5,0.9069
mp-684,BaS2,1.5760999999999998
mp-239,BaS3,1.3727
mp-1182185,BaS4O,0.4364000000000001
mp-1019557,BaS4O13,4.6756
mp-1194419,BaS5O8,0.06189999999999996
mp-696582,BaSO2,1.5130000000000003
mp-768307,BaSO3,4.447
mp-3164,BaSO4,5.9506999999999985
mp-554765,BaSb2F12,4.0459
mp-556539,BaSb2Xe5F22,2.5318
mp-1048167,BaSb4O7,1.2605
mp-545500,BaSbClO2,2.8810000000000002
mp-18099,BaSbF5,4.7525
mp-1041341,BaSbF7,2.6294
mp-558946,BaSbSe2F,1.3342999999999998
mp-18291,BaSbTe3,0.3742999999999999
mp-3564,BaSc2O4,3.8718
mp-1194834,BaSc2Si3O10,4.7533
mp-554796,BaSc3AgS6,1.5944999999999996
mp-1228045,BaSc8Ni2O15,3.7913
mp-1182182,BaScCu3Se4,1.0661
mp-1103664,BaScCuS3,0.9102000000000006
mp-1227813,BaScO2F,3.1634
mp-1192501,BaScZn3GaO7,2.3074
mp-1202467,BaSe(SO2)4,0.05079999999999996
mp-7547,BaSe2,0.5995000000000001
mp-28536,BaSe2O5,3.3781000000000003
mp-7548,BaSe3,0.9260000000000002
mp-6989,BaSeO3,3.8804
mp-12010,BaSeO4,3.6982
mp-1236963,BaSi(HO2)2,4.3457
mp-1201400,BaSi(S2O7)3,5.2901
mp-555387,BaSi2(BO4)2,5.5233
mp-721586,BaSi2(H3O4)2,5.0579
mp-6764,BaSi2(NO)2,3.0104999999999995
mp-3031,BaSi2O5,4.7566
mp-18502,BaSi3SnO9,3.7232
mp-9478,BaSi4O9,4.3439
mp-557414,BaSi6N8O,4.2279
mp-29703,BaSi7N10,3.9251
mp-1190822,BaSi9Rh2,0.14500000000000046
mp-1191774,BaSiC,0.9666
mp-5588,BaSiF6,7.4159
mp-1227766,BaSiGe,0.16549999999999976
mp-3777,BaSiN2,2.9202000000000004
mp-776084,BaSiO3,4.542
mp-1191804,BaSiO4,0.044300000000000006
mp-722278,BaSiP4(HO7)2,5.7483
mp-1214473,BaSm2(CoO3)2,0.0512999999999999
mp-1214393,BaSm2(MoO4)4,3.418
mp-19248,BaSm2CoO5,1.5058000000000002
mp-17960,BaSm2O4,3.1428000000000003
mp-8515,BaSm2PdO5,2.1423
mp-9757,BaSm2PtO5,2.6058000000000003
mp-1200892,BaSm2Sc2O7,3.5354
mp-1197030,BaSm2Ti3O10,1.9460999999999995
mp-6452,BaSm2ZnO5,3.2387
mp-39866,BaSm4Si3SeO12,2.5404
mp-1227863,BaSm5Al3Si9N20O,2.8747000000000007
mp-15073,BaSmC2O6F,4.282
mp-540635,BaSn(GeO3)3,2.7734
mp-1195130,BaSn(HO)6,3.6427
mp-696946,BaSn2(HO2)2,2.1032
mp-27802,BaSn2S3,1.3045
mp-1048197,BaSn4O7,0.06150000000000011
mp-1103397,BaSnF4,3.6679
mp-8290,BaSnF6,4.9883
mp-11819,BaSnHg,0.07679999999999998
mp-1096382,BaSnHg2,0.1882999999999999
mp-555954,BaSnHgS4,1.8454
mp-12181,BaSnS2,1.6394000000000002
mp-1183370,BaSnS3,0.8791000000000002
mp-24938,BaSr(FeO2)4,1.8199
mp-1227843,BaSr(PbO3)2,0.5644999999999998
mp-1227742,BaSr(SnO3)2,0.6749999999999998
mp-1227818,BaSr11Al4(O4F)4,4.0861
mp-567486,BaSr2(PN2)6,4.1542
mp-1227768,BaSr2(PO4)2,5.3346
mp-1227830,BaSr2(SnO3)3,1.3378
mp-1178516,BaSr2I6,3.8972
mp-1227817,BaSr2In2O6,0.9336000000000002
mp-1019558,BaSr2Mg(SiO4)2,4.7589999999999995
mp-19122,BaSr2Mn2(Si2O7)2,1.6195999999999997
mp-1227696,BaSr2ScInO6,1.5380999999999996
mp-1227763,BaSr2Y2Cu2PtO10,0.4493999999999998
mp-1227831,BaSr3(CoO3)4,1.0126999999999995
mp-1227795,BaSr3(SnO3)4,1.2044999999999997
mp-1227715,BaSr3(ZrSe3)4,0.2623000000000002
mp-1227697,BaSr3Ca2(MoO6)2,2.2675
mp-754736,BaSr3I8,3.1392
mp-1227712,BaSr3Mn4O12,0.7930999999999999
mp-984729,BaSr3O4,2.5111
mp-1227688,BaSr3Ti4O12,1.6846
mp-1227746,BaSr3Zr2Ti2O12,2.1689000000000003
mp-1227722,BaSr4Cl10,5.2544
mp-1227710,BaSr4Ti5O15,1.7209999999999999
mp-559427,BaSr4U3O14,2.0759000000000003
mp-1076090,BaSr7(Fe2O5)4,0.7341000000000002
mp-1076377,BaSr7Ti7MnO24,0.8978000000000006
mp-1099778,BaSr7Ti8O24,1.7721
mp-778499,BaSr7V8(Si2O7)8,2.8387999999999995
mp-1093927,BaSrAg2,0.17049999999999987
mp-1227677,BaSrBiSbO6,1.9562000000000004
mp-1093566,BaSrCa2,0.4123999999999999
mp-1227705,BaSrCaMg(SiO4)2,4.7583
mp-1227642,BaSrCaMoO6,2.2616000000000005
mp-1227701,BaSrCaWO6,3.4048000000000003
mp-1095881,BaSrCd2,0.29779999999999984
mp-677647,BaSrCuCO4,0.09409999999999964
mp-1227645,BaSrHf2O6,3.7473
mp-754852,BaSrI4,3.345800000000001
mp-1227956,BaSrLa4Be2O10,3.6505
mp-1227776,BaSrLa4O8,3.2348
mp-1227371,BaSrLaBiO6,2.1135
mp-1097264,BaSrLi2,0.3314000000000001
mp-1227532,BaSrLuBiO6,1.7346
mp-1093634,BaSrMg2,0.21820000000000014
mp-1038708,BaSrMg30O32,3.816
mp-1227482,BaSrMgSi2O7,4.4989
mp-1227325,BaSrMgTeO6,1.9791000000000003
mp-1227368,BaSrMgWO6,3.2366
mp-1227545,BaSrMn2Al9PbO20,1.1149000000000004
mp-1227420,BaSrMn2O6,0.7562000000000002
mp-1227411,BaSrNiWO6,3.3775
mp-1227311,BaSrO2,2.6592
mp-1227495,BaSrPdF6,1.4328
mp-1227347,BaSrSi4,0.0066000000000006045
mp-1227610,BaSrSi4(NO)4,3.5234
mp-962062,BaSrSn,0.002800000000000136
mp-559151,BaSrTa2O7,2.1898
mp-1227336,BaSrTi2O6,1.7176
mp-1227667,BaSrV4(CuO4)4,0.24929999999999986
mp-1227604,BaSrV4(NiO4)4,2.8374
mp-1227594,BaSrY4(CuO5)2,0.11070000000000002
mp-1097100,BaSrZn2,0.03300000000000014
mp-1227377,BaSrZnWO6,3.4066
mp-23611,BaTa2Bi2O9,1.9158
mp-561103,BaTa2O6,2.061
mp-769399,BaTa4O11,3.4594000000000005
mp-769349,BaTa6O16,2.1822
mp-559835,BaTaF7,5.691
mp-1227303,BaTaNO2,0.3176999999999994
mp-1214377,BaTb2(MoO4)4,3.3652
mp-18258,BaTb2O4,3.2026
mp-9760,BaTb2PdO5,2.0216
mp-18084,BaTb2ZnO5,3.0506
mp-1095340,BaTbAgS3,1.0051
mp-1095278,BaTbAgTe3,0.8391000000000002
mp-1095403,BaTbCuTe3,0.6114999999999995
mp-1227304,BaTbFe2O5,0.4077000000000002
mp-1214367,BaTbFe4O7,0.5758999999999994
mp-1106241,BaTbMn2O5,0.02059999999999995
mp-2150,BaTe2,0.34250000000000025
mp-29177,BaTe2F10,4.8809000000000005
mp-1182595,BaTe2Mo2(HO6)2,3.0223000000000004
mp-8234,BaTe3,0.8122999999999996
mp-1197650,BaTe3H15(CN)3,1.2348
mp-1195118,BaTe3O7,3.2644
mp-1195016,BaTe4O9,3.184400000000001
mp-556778,BaTeF6,4.8353
mp-1214721,BaTeH3(S2O3)2,1.9246
mp-5431,BaTeO3,2.7125
mp-754967,BaTeO4,2.1894
mp-27499,BaTeS3,1.9088000000000005
mp-1193611,BaTeS3O2,0.6316999999999999
mp-1182586,BaTeS4O9,0.5631
mp-19666,BaTeW2O9,3.4094
mp-1192105,BaTh(PO4)2,5.076599999999999
mp-1195483,BaTh2S5,1.7342000000000004
mp-570615,BaThBr6,2.1637000000000004
mp-1189614,BaThO3,4.0452
mp-11659,BaTi(BO3)2,2.3877
mp-1214320,BaTi(GeO3)3,2.9868
mp-1227524,BaTi(IO3)6,2.7313
mp-1198551,BaTi(S2O7)3,2.717
mp-6661,BaTi(SiO3)3,3.0637000000000003
mp-1227638,BaTi2Fe4O11,1.6092999999999995
mp-558159,BaTi2O5,2.8003
mp-1048108,BaTi4AlO7,0.2755000000000001
mp-1227554,BaTi4Bi4O15,1.5975
mp-3175,BaTi4O9,2.7859000000000003
mp-27790,BaTi5O11,2.6952000000000003
mp-504457,BaTi6O13,2.6401000000000003
mvc-7210,BaTiAlCuO5,0.008899999999999686
mp-1195143,BaTiCu4P4O17,0.1341000000000001
mp-8291,BaTiF6,4.316000000000002
mp-1202235,BaTiFe2(SiO5)2,1.6749999999999998
mp-1227513,BaTiFe3(BiO4)3,2.0346
mp-1200625,BaTiMn2(SiO5)2,0.6052
mp-16915,BaTiOF4,3.3400000000000003
mp-1041319,BaTiZnF7,0.23309999999999986
mp-1214441,BaTl(PO3)3,4.8476
mp-754897,BaTl2O4,0.2972999999999999
mp-1097529,BaTl2Pb,0.3595999999999999
mp-1182240,BaTlCu3Se4,0.5878000000000001
mp-1182629,BaTlP3O11,0.6618999999999999
mp-561195,BaTlVO4,3.5439
mp-1214443,BaTm2(MoO4)4,3.2574000000000005
mp-541418,BaTm2CoO5,2.059400000000001
mp-7693,BaTm2F8,7.2347
mp-542336,BaTm2NiO5,2.1495999999999995
mp-754599,BaTm2O4,3.2297
mp-6250,BaTm2ZnO5,3.3223
mp-1203002,BaTmCo4O7,0.9032
mp-1194605,BaU(PS4)2,0.03820000000000024
mp-1198641,BaU(SeO4)2,0.09729999999999994
mp-555561,BaU(SiO4)2,2.3858999999999995
mp-1182767,BaU11(GeO19)2,1.5868999999999995
mp-27649,BaU2O7,2.0533
mp-1201878,BaU2P2O19,0.6749999999999999
mp-1199878,BaU2S5,0.0034000000000000696
mp-1215083,BaU2V2(HO3)4,2.0423
mp-1227825,BaU2V2O12,1.9574
mp-574430,BaUI6,0.22419999999999995
mp-5611,BaUO4,2.1144
mp-1194611,BaUTe6,0.09889999999999954
mp-560110,BaUTiO6,1.9643
mp-566358,BaV(AsO4)2,2.4743000000000004
mp-1199112,BaV(AsO5)2,0.342
mp-19458,BaV10O15,0.8319000000000001
mp-769419,BaV10O17,1.0171
mp-638002,BaV13O18,0.6830999999999996
mp-1227827,BaV2(AsO5)2,2.1076
mp-19504,BaV2(CoO4)2,1.8964
mp-567035,BaV2(CuO4)2,0.15809999999999969
mp-18723,BaV2(NiO4)2,2.6682
mp-566356,BaV2(P2O7)2,2.0973
mp-19512,BaV2(PO5)2,2.2674000000000003
mp-25791,BaV2CdO7,3.0724
mp-1192702,BaV2Cu(AgO4)2,0.5884999999999998
mp-561453,BaV2CuO7,0.7192000000000001
mp-735536,BaV2H2(Se2O7)2,2.4223
mp-1195240,BaV2H2Se2O11,1.6973
mp-1201280,BaV2O7,0.9129
mp-1198793,BaV2P4O17,0.9204
mp-566637,BaV2TeO8,2.6884
mp-1196637,BaV2ZnO7,3.083
mp-32499,BaV3O8,1.8698
mp-579757,BaV4As4O19,1.5368000000000002
mvc-1332,BaV4O7,1.1800000000000002
mp-18910,BaV4O9,1.0483000000000002
mp-1044331,BaV4ZnO8,0.9247000000000004
mp-610232,BaV6O11,0.9087
mp-767913,BaV8O21,1.3112
mp-541545,BaVAsO6,2.6697
mp-1214298,BaVCdF7,2.4643
mp-699566,BaVCdP2O9,2.4525
mp-566321,BaVClO3,2.3881
mp-565705,BaVCu4P4O17,0.005599999999999827
mp-566751,BaVOF4,2.7566
mp-25157,BaVPO6,2.4690000000000003
mp-1227435,BaVSeS2,0.0015000000000000568
mp-565626,BaVSi2O7,2.4363
mp-1047908,BaVZnF7,2.3922
mp-554925,BaVZnP2O9,2.3917
mp-1047945,BaWF7,3.2760000000000002
mp-989622,BaWN3,1.505
mp-19048,BaWO4,4.8822
mp-646218,BaY(CoO2)4,0.5722999999999998
mp-1214357,BaY2(MoO4)4,3.327500000000001
mp-754116,BaY2Br8,4.0924999999999985
mp-769044,BaY2Cl8,4.9177
mp-622482,BaY2CoO5,1.8631
mp-768240,BaY2F8,7.0525
mp-3952,BaY2O4,3.2493
mp-9656,BaY2PdO5,1.9871
mp-1193084,BaY2Si2O7F2,5.0261999999999984
mp-560478,BaY2Si3O10,4.8148
mp-6121,BaY2ZnO5,3.0989
mp-753942,BaY3Br11,3.0403
mp-769003,BaY3Cl11,3.7242
mp-752674,BaY3F11,7.0887
mp-769070,BaY4Cl14,4.0974
mp-1019546,BaY4Si5O17,4.8104
mp-554918,BaY6Si3B6(O12F)2,5.2315000000000005
mp-6647,BaYAgSe3,1.3282000000000005
mp-10337,BaYAgTe3,0.7671000000000001
mp-778355,BaYBr5,3.8004
mp-756564,BaYCl5,4.0352
mp-1192423,BaYCo4O7,0.8101000000000003
mp-1227472,BaYCoCuO5,0.1633
mp-1048386,BaYCr4O7,0.10650000000000047
mp-1182242,BaYCu3Se4,0.8239000000000003
mvc-7677,BaYCuNiO5,0.2337000000000007
mp-1103275,BaYCuS3,1.2671999999999994
mp-1101801,BaYCuSe3,1.0537000000000003
mp-10336,BaYCuTe3,0.5362999999999998
mp-752675,BaYF5,7.1878
mp-542205,BaYFe2O5,0.8497000000000003
mp-1048387,BaYFe4O7,1.4460000000000002
mp-505589,BaYFeCuO5,0.5511000000000004
mp-1195207,BaYFeO4,1.7645
mp-772077,BaYI5,2.9223000000000003
mp-1037184,BaYMg30O32,0.4542999999999999
mp-42020,BaYMnCoO5,0.2053999999999996
mp-11670,BaYSi4N7,2.7326999999999995
mvc-7203,BaYTiCuO5,0.09090000000000042
mp-1192369,BaYZn3GaO7,2.2001
mp-541597,BaYb2CoO5,0.08210000000000006
mp-1202951,BaYb2Si3O10,0.005299999999999971
mp-684785,BaYbAl2Si2N5O2,1.6482
mp-684968,BaYbAl2SiN5O2,1.1311
mp-865143,BaYbCdSb2,0.7040000000000002
mp-542705,BaYbCo4O7,0.3435000000000001
mp-1104197,BaYbFe4O7,1.0989
mp-1046956,BaZn(BiO2)4,0.5423
mp-1044403,BaZn(FeO2)4,1.5779000000000003
mp-1044577,BaZn(NiO2)4,0.3266
mp-1205399,BaZn(SeO3)2,3.7711
mp-15739,BaZn2(AsO4)2,2.9793
mp-557974,BaZn2(BO3)2,3.4811
mp-6089,BaZn2(PO4)2,4.0373
mp-758313,BaZn2As3HO11,2.3039
mp-707945,BaZn2H16O11,0.1956
mp-560441,BaZn2Si2O7,3.3032000000000004
mp-1041309,BaZnAgF7,0.3356999999999999
mp-554083,BaZnAs2O7,2.8585
mp-1079320,BaZnAsF,0.24529999999999985
mp-1077866,BaZnBO3F,3.742
mp-1041314,BaZnBiF7,5.1549
mp-11166,BaZnCO3F2,4.7744
mp-23373,BaZnCl4,4.6276
mp-1047922,BaZnCoF7,1.6673
mp-1047910,BaZnCrF7,3.7429
mp-1041302,BaZnCuF7,0.5794999999999999
mp-3881,BaZnF4,4.5489
mp-1227632,BaZnFe6O11,0.4683000000000002
mp-567135,BaZnFeF7,3.4129
mp-757722,BaZnGeO4,2.8891
mp-1047902,BaZnMoF7,3.842200000000001
mp-1047950,BaZnNiF7,1.3279
mp-4236,BaZnO2,2.2705
mp-14345,BaZnP2O7,4.3393
mp-548469,BaZnSO,2.2347
mp-1041326,BaZnSbF7,4.3858
mp-561305,BaZnSiO4,3.5871000000000004
mp-31148,BaZnSn,0.04300000000000015
mp-13593,BaZnSnS4,2.361
mp-1191811,BaZnTe2O7,1.6718999999999995
mp-558504,BaZnTeCl2O3,3.7598
mp-1047930,BaZnWF7,3.1929
mp-559348,BaZr(BO3)2,4.1141
mp-556139,BaZr(PO4)2,4.1560000000000015
mp-1214228,BaZr(SiO3)3,4.6385
mp-505400,BaZr2F10,5.7615
mp-560308,BaZr4(PO4)6,4.3446
mp-1227880,BaZr5Pb4O15,2.9158000000000004
mp-8232,BaZrF6,6.2669
mp-3104,BaZrN2,0.9972000000000004
mp-3834,BaZrO3,3.0368000000000004
mp-1096801,BaZrP2,0.10430000000000028
mp-540771,BaZrS3,0.9971
mp-998427,BaZrSe3,0.3725999999999998
mp-27748,Be(B3H7)2,4.2788
mp-722237,Be(B3H8)2,3.4994
mp-569299,Be(BC)2,0.21089999999999964
mp-27344,Be(BH4)2,6.1859
mp-1199247,Be(BO2)4,0.07579999999999988
mp-35687,Be(CN)2,5.9058
mp-770566,Be(FeO2)2,1.7691000000000003
mp-757917,Be(GaO2)2,2.8901000000000003
mp-28018,Be(H2N)2,3.3225
mp-697136,Be(HO)2,5.4038
mp-30141,Be(N3O7)2,1.2844000000000002
mp-1182195,Be(NF2)2,2.7072
mp-1019545,Be(PN2)2,4.0393
mp-27588,Be(PO3)2,6.026
mp-1227693,Be12Al8Si24O73,0.8555000000000001
mp-720433,Be2As(HO)9,4.2052999999999985
mp-1227442,Be2BH3O5,5.6322
mp-23883,Be2BHO4,5.8665
mp-554023,Be2BO3F,6.3561
mp-1182244,Be2BO4,0.19170000000000004
mp-1569,Be2C,1.1636999999999995
mp-1097528,Be2CdPt,0.2279
mp-1238119,Be2Co(NF7)2,1.2094
mp-1095785,Be2CoCu,0.40139999999999976
mp-1238037,Be2CoH6(NF4)2,0.5467
mp-1097445,Be2CoOs,0.06210000000000005
mp-1095931,Be2CrIr,0.11529999999999994
mp-1096063,Be2CuOs,0.3089000000000004
mp-768285,Be2GeO4,3.9903
mp-1096647,Be2IrOs,0.11660000000000005
mp-1097122,Be2IrRh,0.01560000000000006
mp-1198491,Be2NiH20N2(O3F4)2,4.3411
mp-779108,Be2P2O7,6.0325
mp-1198968,Be2P2PbO8,4.6645
mp-1197425,Be2P3NO10,0.24829999999999985
mp-705909,Be2PH5O7,4.9750000000000005
mp-1097702,Be2PdRu,0.09770000000000012
mp-1097267,Be2RuRh,0.08650000000000002
mp-1183429,Be2Si2O5,0.4219999999999997
mp-3347,Be2SiO4,5.8262
mp-30096,Be2Te7Cl6,1.2797
mp-1238504,Be2Tl2Co(O3F4)2,0.13380000000000006
mp-1237444,Be2Tl2Zn(O3F4)2,0.2517
mp-27187,Be2TlF5,4.9163
mp-1097557,Be2ZnPt,0.2648999999999999
mp-1214242,Be3Ag4P3BrO12,2.4989
mp-6030,Be3Al2(SiO3)6,5.3195000000000014
mp-1214221,Be3Al2Si6HO18,4.8329
mp-1195857,Be3Al2Si6O19,0.8407
mp-24570,Be3As2(H2O5)2,3.9653
mp-1202034,Be3As2H10(NO5)2,4.0657999999999985
mp-1214690,Be3B3P6N3O25,0.009299999999999977
mp-1227633,Be3Bi(RhO2)9,0.4059999999999997
mp-17493,Be3Cd4Si3SO12,0.8171999999999999
mp-16793,Be3Cd4Si3SeO12,2.8506
mp-17167,Be3Cd4Si3TeO12,2.8787
mp-1047903,Be3Cr2(SiO4)3,1.8222
mp-1047825,Be3Fe2(SiO4)3,1.4849
mp-627398,Be3Fe4Si3SO12,3.1762
mp-704536,Be3Fe4Si3SeO12,3.1008000000000004
mp-1134064,Be3Fe4Si3TeO12,3.2568
mp-11273,Be3Nb,0.06359999999999921
mp-567841,Be3P2,0.8891
mp-24674,Be3P2(H2O5)2,5.8481
mp-1041202,Be3Si3(BiO6)2,3.3148
mp-1047811,Be3Si3(MoO6)2,3.8074
mp-1041250,Be3Si3(SbO6)2,2.9288000000000003
mp-1041318,Be3Si3(SnO6)2,1.4817
mp-1047959,Be3Si3(WO6)2,3.5609
mp-1214189,Be3Si3C4SO12,1.7263000000000002
mp-1202186,Be3SiO6,0.058300000000000025
mp-1214315,Be3Tl2Cd2F12,5.295
mp-1214371,Be3Tl2Co2F12,0.01100000000000012
mp-1214337,Be3Tl2Ni2F12,5.1496
mp-1214313,Be3Tl2Zn2F12,5.4716
mp-1047935,Be3V2(SiO4)3,1.8777000000000004
mp-6856,Be3Zn4Si3SO12,3.9654
mp-1227338,Be3ZnO4,4.264899999999999
mp-30142,Be4N6O19,3.5718
mp-707304,Be4Si2H2O9,5.7391999999999985