task_id,pretty_formula,band_gap
mp-6145,Ba2LuRuO6,0.11160000000000014
mp-1078185,Ba2LuSbO6,3.2325
mp-1079705,Ba2LuTaO6,3.392
mp-1206047,Ba2LuUO6,0.8353999999999999
mp-1019528,Ba2Mg(BO2)6,5.2119
mp-9259,Ba2Mg(BO3)2,4.532399999999999
mp-14558,Ba2Mg(PO4)2,4.696999999999999
mp-1214672,Ba2Mg2MnF10,4.4329
mp-1046499,Ba2Mg2Tl2W3O10,0.07449999999999958
mp-541162,Ba2Mg3F10,6.892
mp-733604,Ba2Mg3H10,3.0265000000000004
mp-1096276,Ba2MgCd,0.07390000000000008
mvc-2321,Ba2MgCo2CuF14,0.7803
mp-1045870,Ba2MgCr2CuF14,0.8832
mp-1045802,Ba2MgCuAg2F14,0.1195
mvc-1817,Ba2MgCuBi2F14,1.1662
mp-1045901,Ba2MgCuMo2F14,0.8327999999999999
mp-1045695,Ba2MgCuSb2F14,0.8667
mvc-2080,Ba2MgCuSn2F14,0.7909000000000002
mp-1045836,Ba2MgFe2CuF14,0.8679
mp-1190545,Ba2MgGe2O7,3.6144
mp-643370,Ba2MgH6,2.8864
mp-1097615,Ba2MgHg,0.06799999999999984
mp-1045910,Ba2MgMn2CuF14,1.0008
mp-1205825,Ba2MgMoO6,2.2399
mp-779511,Ba2MgO3,3.5116000000000005
mp-9338,Ba2MgSi2O7,4.4529000000000005
mvc-2079,Ba2MgTi2CuF14,0.2929999999999997
mp-13811,Ba2MgUO6,2.0537
mvc-2946,Ba2MgV2CuF14,1.6703
mp-18986,Ba2MgWO6,3.2231
mp-1097603,Ba2MgZn,0.06820000000000004
mp-567087,Ba2Mn(AsO4)2,2.7135
mp-18990,Ba2Mn(BO2)6,3.978800000000001
mp-1044811,Ba2Mn2AlF11,3.7479
mp-561597,Ba2Mn2As2O,0.2557999999999998
mp-1214624,Ba2Mn2ClF7,3.3969
mp-1045769,Ba2Mn2CuF14,0.9924
mp-1048841,Ba2Mn2F11,1.6667
mp-19213,Ba2Mn2Sb2O,0.0008999999999996787
mp-1080029,Ba2Mn2Se2OF2,1.9964
mp-580450,Ba2Mn2Si2O9,1.9934
mp-1045867,Ba2Mn2ZnCuF14,0.885
mp-566331,Ba2Mn3(SeO3)6,0.9555999999999998
mp-1214777,Ba2MnAl2CoF14,3.1342
mp-1214705,Ba2MnAl2CuF14,0.7277999999999999
mp-1214631,Ba2MnCdFe2F14,2.2505
mp-1192147,Ba2MnGe2O7,2.2105
mp-25013,Ba2MnMoO6,1.2569
mp-565327,Ba2MnNiClF7,3.6099
mp-540673,Ba2MnO3,1.6203
mp-18445,Ba2MnS3,1.1094999999999997
mp-18513,Ba2MnSe3,1.0675
mp-566258,Ba2MnSi2ClO7,1.3283999999999998
mp-16905,Ba2MnTe3,0.8251999999999997
mp-18992,Ba2MnTeO6,0.9367000000000004
mp-1228544,Ba2MnTeSe2,0.8641000000000001
mp-19085,Ba2MnWO6,2.218
mp-1040864,Ba2Mo2F11,1.9493
mp-1214599,Ba2MoO3F4,3.1783
mp-1892,Ba2N,0.05479999999999974
mp-1018099,Ba2NCl,1.1077
mp-1018096,Ba2NF,1.0924
mp-1078941,Ba2NO6,0.2114
mp-19397,Ba2Na(NiO2)3,0.5345
mp-697960,Ba2Na2B10H2O19,4.6933
mp-752395,Ba2Na2O3,1.9318
mp-1204071,Ba2Na2SrAl4F20,7.1053
mp-720079,Ba2Na7Ti16Bi7O48,2.4487
mp-1097453,Ba2NaCd,0.1715
mp-1191092,Ba2NaCu3S5,0.4550999999999998
mp-1091394,Ba2NaIO6,2.2172999999999994
mp-1228472,Ba2NaLaTi4O12,1.7664999999999995
mp-1095990,Ba2NaLi,0.5001000000000002
mp-1096498,Ba2NaMg,0.1972999999999998
mp-1228567,Ba2NaMn3F11,3.6848
mp-1199624,Ba2NaNb5O15,2.5069
mp-1095846,Ba2NaPb,0.1376999999999997
mp-6798,Ba2NaReO6,1.8688
mp-1096626,Ba2NaSn,0.16439999999999966
mp-1228553,Ba2NaSr2(SbO4)3,1.8437
mp-1215061,Ba2NaTi2MnRe2Si8HO26F,0.23550000000000004
mp-1093929,Ba2NaTl,0.6604000000000001
mp-557108,Ba2Nb2TeO10,2.9816000000000003
mp-16998,Ba2Nb6Te2O21,2.1563
mp-1147642,Ba2NbBiO6,2.0615
mp-1228382,Ba2NbCoO6,1.4402999999999997
mp-619488,Ba2NbCrO6,1.5823999999999998
mp-1021504,Ba2NbFeO6,1.7319999999999998
mp-20620,Ba2NbInO6,3.3486
mp-17024,Ba2NbN3,1.9578
mp-1228528,Ba2NbP2O9F,2.99
mp-1205833,Ba2NbRhO6,0.7731999999999997
mp-1228483,Ba2Nd2Co4O11,0.3239000000000001
mp-704634,Ba2Nd2Fe4O11,0.8703999999999996
mp-561462,Ba2Nd2Si4O13,5.046200000000002
mp-567918,Ba2Nd7Si11N23,0.6173000000000002
mp-555284,Ba2NdAlO5,3.6856
mp-546321,Ba2NdBiO6,1.6734
mp-1205363,Ba2NdGaSe5,1.8029
mp-1190093,Ba2NdInSe5,1.0570000000000004
mp-1205400,Ba2NdInTe5,0.6539999999999999
mp-6167,Ba2NdNbO6,2.9850000000000003
mp-6200,Ba2NdRuO6,0.1532
mp-6122,Ba2NdSbO6,3.7321
mp-1205600,Ba2NdTaO6,3.4949000000000003
mp-565891,Ba2Ni2ClF7,4.0759
mp-1041199,Ba2Ni2F11,0.0403
mp-553999,Ba2Ni3F10,4.8298000000000005
mp-560626,Ba2Ni7F18,4.8408
mp-556041,Ba2NiF6,4.5169
mp-561738,Ba2NiMoO6,2.3916
mp-19011,Ba2NiTeO6,2.3261
mp-504723,Ba2NiWO6,3.3409
mp-1019530,Ba2P2O7,5.1483
mp-772748,Ba2P6O17,5.2547000000000015
mp-1105535,Ba2P7Br,1.7552999999999996
mp-569613,Ba2P7Cl,1.5636999999999994
mp-1188687,Ba2P7I,1.7842999999999996
mp-1093925,Ba2PAu,0.8443999999999998
mp-27869,Ba2PCl,1.2595
mp-1205080,Ba2PIO4,4.3616
mp-21246,Ba2Pb,0.031400000000000095
mp-1229061,Ba2Pb(SO4)3,4.1893
mp-20098,Ba2PbO4,1.2232000000000005
mp-29794,Ba2PdF6,1.6787
mp-29352,Ba2PdO3,0.017500000000000068
mp-1093973,Ba2PdPt,1.0355
mp-1228571,Ba2Pr2Co4O11,0.2586999999999997
mp-1214573,Ba2PrBiO6,1.7508
mp-676002,Ba2PrF7,6.2167
mp-10344,Ba2PrNbO6,2.9772000000000007
mp-6183,Ba2PrRuO6,0.16700000000000026
mp-6692,Ba2PrSbO6,3.7710000000000004
mp-1205686,Ba2PrTaO6,3.4876000000000005
mp-1206179,Ba2PuTiO6,0.19890000000000008
mp-14406,Ba2Re6S11,1.3384999999999998
mp-1228621,Ba2S2O3F2,2.4421
mp-28978,Ba2S3,1.5978
mp-1044608,Ba2Sb2F11,0.2953999999999999
mp-765493,Ba2Sb2O5,2.3822
mp-752404,Ba2Sb2O7,0.9781999999999996
mp-16922,Ba2Sb3,0.2850999999999999
mp-554481,Ba2Sb4P2O17,1.8778
mp-862631,Ba2SbAu,0.5970999999999997
mp-1093939,Ba2SbBr,0.7463000000000002
mp-1097360,Ba2SbI,0.8292999999999999
mp-558688,Ba2Sc2B4O11,3.3548
mp-755950,Ba2Sc2O5,2.7100000000000004
mp-1228598,Ba2ScAlO5,1.9943
mp-573888,Ba2ScCl7,3.6349
mp-1206644,Ba2ScNbO6,2.5689
mp-1228342,Ba2ScO3F,3.6754
mp-1228409,Ba2ScTi2BiO9,2.0711
mp-1206763,Ba2ScUO6,0.7747999999999999
mp-9905,Ba2Si,0.000500000000000167
mp-9867,Ba2Si3Ag,0.052399999999999565
mp-1228626,Ba2Si3Ge5O18,3.2310000000000003
mp-29222,Ba2Si3O8,4.5119
mp-9711,Ba2Si5N8,2.8812999999999995
mp-17612,Ba2SiO4,4.6289
mp-5838,Ba2SiS4,3.0012
mp-14447,Ba2SiSe4,2.2776
mp-14448,Ba2SiTe4,1.1018
mp-704632,Ba2Sm2Fe4O11,0.8254000000000001
mp-1189376,Ba2SmGaSe5,1.8115
mp-1189729,Ba2SmGaTe5,1.1014
mp-1188304,Ba2SmInSe5,1.0684
mp-1095110,Ba2SmMoO6,0.8754000000000004
mp-1228654,Ba2SmNb4FeO15,1.8448
mp-22184,Ba2SmNbO6,2.8503
mp-1080470,Ba2SmOsO6,0.046899999999999935
mp-6037,Ba2SmSbO6,3.6054
mp-1207130,Ba2SmUO6,0.7805
mp-1044595,Ba2Sn2F11,0.06769999999999987
mp-867912,Ba2SnHg,0.04979999999999984
mp-3359,Ba2SnO4,2.4422
mp-17918,Ba2SnS3F2,2.3078000000000003
mp-541832,Ba2SnS4,1.9550999999999996
mp-17805,Ba2SnSe3F2,1.7221999999999995
mp-1201423,Ba2SnSe4O5,0.21340000000000006
mp-1228498,Ba2Sr(PO4)2,5.4148999999999985
mp-1228764,Ba2Sr(ZrSe3)3,0.3374999999999999
mp-1228440,Ba2Sr2CaTi5O15,1.7168
mp-1228510,Ba2Sr3CaMg2(SiO4)4,4.7563
mp-1228768,Ba2Sr3Nb10O30,2.173
mp-1214648,Ba2Sr5B4S13,2.5583
mp-1076893,Ba2Sr6Co5Cu3O20,0.00649999999999995
mp-1076337,Ba2Sr6Ti7MnO24,0.9444999999999996
mp-752682,Ba2Sr7I18,3.4189999999999996
mp-1228370,Ba2SrB18,0.08809999999999985
mp-1097376,Ba2SrCa,0.06080000000000019
mp-1228533,Ba2SrCa3Mg2(SiO4)4,4.8925
mp-772875,Ba2SrI6,3.4322000000000004
mp-9115,Ba2SrIrO6,0.10089999999999977
mp-1198727,Ba2SrMg4F14,6.6307
mp-13356,Ba2SrTeO6,3.1291999999999995
mp-1228362,Ba2SrTi3O9,1.7303000000000002
mp-14552,Ba2SrUO6,2.2434
mp-1228399,Ba2SrV2O8,3.7317
mp-18764,Ba2SrWO6,3.2478
mp-1214627,Ba2SrY2Cu2PtO10,0.4672000000000001
mp-770239,Ba2Ta2O7,2.9092
mp-6238,Ba2Ta6Te2O21,2.8280000000000003
mp-545544,Ba2TaBiO6,2.5384
mp-1228308,Ba2TaCoO6,1.4585000000000004
mp-1205671,Ba2TaFeO6,1.8507
mp-1079630,Ba2TaInO6,3.9439
mp-17400,Ba2TaN3,2.0175
mp-1205650,Ba2TaTlO6,2.2369000000000003
mp-868127,Ba2Tb2Mn4O11,0.2585000000000002
mp-552191,Ba2TbBiO6,1.7187
mp-1214626,Ba2TbCl7,4.8769
mp-6254,Ba2TbNbO6,2.9904
mp-6265,Ba2TbSbO6,3.5072
mp-1207064,Ba2TbTaO6,3.5126
mp-1214561,Ba2TbWO6,1.6414
mp-1078191,Ba2TeO,1.7805
mp-560742,Ba2TeP2O9,3.4201
mp-1078630,Ba2ThCu2S5,1.0797000000000008
mp-1078405,Ba2ThCu2Se5,0.9245000000000004
mp-1189897,Ba2ThS6,1.3546
mp-6289,Ba2Ti(GeO4)2,3.7129
mp-6081,Ba2Ti(SiO4)2,3.7171
mp-768357,Ba2Ti11O24,2.5740000000000003
mp-1044573,Ba2Ti2AlF11,0.10469999999999936
mp-1045006,Ba2Ti2CuF14,1.0248
mp-1044618,Ba2Ti2F11,0.057700000000000085
mp-557968,Ba2Ti2Si2O9F2,3.3246999999999995
mp-1046030,Ba2Ti2TlO7,0.13159999999999972
mp-1228588,Ba2Ti3Nb4O18,2.5972
mvc-14876,Ba2Ti3O8,0.9199000000000002
mp-1046312,Ba2Ti3Tl2O10,0.5450000000000004
mp-1228511,Ba2Ti4Cr2O13,2.0451
mp-1214656,Ba2Ti4Fe2O13,1.8806000000000005
mp-1229191,Ba2Ti5(Bi2O9)2,1.7439
mp-755526,Ba2Ti6N2O11,1.9033
mp-7733,Ba2Ti6O13,0.001000000000000334
mp-560731,Ba2Ti9O20,2.7429
mp-1228358,Ba2TiMnO6,1.0739
mp-3397,Ba2TiO4,4.1473
mp-561256,Ba2TiOF6,3.8913
mp-17908,Ba2TiS4,2.0968
mp-757586,Ba2Tl(HO)7,2.4953000000000003
mp-642318,Ba2Tl(NO2)5,0.7217999999999999
mp-18327,Ba2Tl2O5,0.8080000000000003
mvc-141,Ba2Tl2Zn3Cr4O12,0.042999999999999705
mp-31071,Ba2Tl7Au,0.007500000000000284
mp-1093949,Ba2TlAg,0.6040000000000001
mp-1096031,Ba2TlAu,0.5724
mp-1093785,Ba2TlIn,0.6060999999999999
mvc-2990,Ba2TlNi2O7,0.024399999999999974
mp-1096475,Ba2TlPb,0.002299999999999969
mp-1096391,Ba2TlPd,0.0015000000000000568
mp-1228332,Ba2TlSbO6,0.0017000000000000348
mp-1214674,Ba2Tm2CuPtO8,0.2467999999999999
mp-1228595,Ba2Tm2Zn8O13,1.6172000000000002
mp-1214625,Ba2TmCl7,4.9988
mp-12642,Ba2TmNbO6,2.8502
mp-12729,Ba2TmRuO6,0.06529999999999969
mp-1206029,Ba2TmTaO6,3.3999
mp-1196334,Ba2U(AsO5)2,2.2323
mp-1192549,Ba2U(Cu2Se3)2,0.07310000000000016
mp-1192547,Ba2U(PO5)2,2.1607000000000003
mp-583034,Ba2U2O7,0.4186000000000005
mp-1205751,Ba2UBeO6,1.7071999999999998
mp-1079615,Ba2UCdO6,1.814
mp-1205611,Ba2UCrO6,0.7290000000000001
mp-555358,Ba2UCu2S5,0.000399999999999956
mp-9238,Ba2UCuO6,0.17130000000000045
mp-540827,Ba2UFeO6,0.014499999999999956
mp-1206032,Ba2UGeO6,0.6132
mp-1205945,Ba2UHgO6,1.5931999999999995
mp-1205569,Ba2UInO6,0.8755999999999995
mp-25003,Ba2UMnO6,1.0436
mp-19093,Ba2UNiO6,1.6326999999999998
mp-1080842,Ba2UPbO6,1.2277000000000005
mp-1078725,Ba2UZnO6,1.7578000000000005
mp-560493,Ba2V(CuS2)3,0.6867000000000001
mp-19179,Ba2V(SiO4)2,2.5878999999999994
mp-1214680,Ba2V2CuClO7,1.0268000000000002
mp-1228885,Ba2V2CuF12,0.5587000000000001
mp-1040790,Ba2V2F11,0.9068
mp-1214659,Ba2V2FeO9,0.2705
mp-19474,Ba2V2O7,3.4599
mvc-2433,Ba2V2ZnCuF14,0.5506000000000001
mp-565665,Ba2V2ZnO8,3.4336
mp-565650,Ba2V3BiO11,3.2227
mp-32531,Ba2V3O9,1.5279000000000005
mp-744637,Ba2V3P6HO22,1.9448
mp-567038,Ba2V4Cd3O15,2.8927
mp-565732,Ba2V5(PO6)4,1.0117
mp-1214695,Ba2VCu2F12,0.5988999999999999
mp-1096782,Ba2VFeO6,1.0780999999999996
mp-705244,Ba2VI5O17,2.8495
mp-1079477,Ba2VMoO6,0.3498000000000001
mp-17696,Ba2VN3,1.3895999999999995
mp-19096,Ba2VO4,1.5244999999999995
mp-863298,Ba2VP2O11,0.13589999999999994
mp-566252,Ba2VP2O9,2.5501
mp-1040871,Ba2W2F11,2.8531
mp-19234,Ba2WO3F4,3.9748
mp-504949,Ba2WO5,3.1515
mp-1196168,Ba2WO6,0.3866000000000001
mp-504966,Ba2Y2CuPtO8,0.2261000000000002
mp-1214593,Ba2Y2Mn4O11,0.06610000000000005
mp-1196983,Ba2Y3Si2O8F5,4.8175
mp-768958,Ba2Y5Cl19,4.2872
mp-778072,Ba2Y5F19,6.1194
mp-769023,Ba2Y7Cl25,4.1259
mp-866310,Ba2YB2ClO6,4.0585
mvc-677,Ba2YBi3O8,0.039499999999999424
mp-23137,Ba2YBiO6,1.8237
mp-752620,Ba2YBr7,3.8349
mp-8985,Ba2YC2(O2F)3,5.2639999999999985
mp-768954,Ba2YCl7,4.7083
mp-1049052,Ba2YCo2F11,0.20530000000000004
mp-1049234,Ba2YCr2F11,3.1167
mp-1048325,Ba2YCr3O7,0.007800000000000473
mp-1044526,Ba2YCu2F11,0.8523999999999999
mp-777744,Ba2YF7,6.9627
mp-1049241,Ba2YFe2F11,3.7987
mp-1106265,Ba2YGaSe5,1.8097
mp-1189739,Ba2YGaTe5,0.4131999999999998
mp-849802,Ba2YI7,2.9089
mp-1205397,Ba2YInSe5,1.1685
mp-1106096,Ba2YInTe5,0.4759000000000002
mp-1049236,Ba2YMn2F11,3.7118
mp-7251,Ba2YNbO6,2.8514
mp-1044915,Ba2YNi2F11,4.6917
mp-1078303,Ba2YOsO6,0.048100000000000254
mp-6428,Ba2YRuO6,0.08999999999999986
mvc-672,Ba2YSb3O8,0.3541999999999996
mp-6492,Ba2YSbO6,3.5377
mp-1044569,Ba2YSn2F11,3.2299999999999995
mp-12385,Ba2YTaO6,3.4654000000000003
mp-1044611,Ba2YTi2F11,0.09079999999999976
mp-1046397,Ba2YTlNi2O7,0.25709999999999944
mvc-2994,Ba2YTlV2O7,0.5411000000000001
mp-1205713,Ba2YUO6,0.8079000000000001
mp-1044893,Ba2YV2F11,2.4633
mp-1048842,Ba2YW2F11,2.3242
mp-684853,Ba2Yb2Al4Si3(N5O2)2,0.2877000000000001
mp-1205934,Ba2YbMoO6,2.2374
mp-1205759,Ba2YbUO6,2.1356
mp-558680,Ba2Zn(BO2)6,4.2700000000000005
mp-559138,Ba2Zn(BO3)2,3.6265
mp-696066,Ba2Zn(HO)6,2.6587
mp-1182747,Ba2Zn(P3O14)2,1.0528
mp-555271,Ba2Zn2ClF7,4.354
mp-1195039,Ba2Zn2TeP2O11,4.1273
mp-14769,Ba2Zn3(AsO)2,0.11900000000000023
mp-555980,Ba2Zn3(PO3)10,4.8081999999999985
mp-1214592,Ba2Zn3F10,4.3169
mp-541827,Ba2Zn7F18,4.0535
mp-1097365,Ba2ZnAg,0.059900000000000064
mp-622268,Ba2ZnAg2(SeO)2,1.0540000000000005
mp-1078636,Ba2ZnAs2,0.7784
mp-1079130,Ba2ZnBi2,0.24960000000000004
mp-1045862,Ba2ZnCr2CuF14,0.8406
mp-1045718,Ba2ZnCuAg2F14,0.038100000000000016
mvc-1818,Ba2ZnCuBi2F14,1.1815
mvc-2456,Ba2ZnCuNi2F14,0.3422
mp-1045711,Ba2ZnCuSb2F14,0.9026
mp-7739,Ba2ZnF6,4.732399999999998
mp-1045827,Ba2ZnFe2CuF14,0.7766
mvc-15137,Ba2ZnFe2F14,0.16759999999999994
mp-1096058,Ba2ZnGa,0.02519999999999989
mp-1190949,Ba2ZnGe2O7,3.1017
mp-17244,Ba2ZnGe2S6O,2.0929
mp-1206097,Ba2ZnMoO6,2.3818
mp-9307,Ba2ZnN2,0.4796999999999998
mp-17911,Ba2ZnO3,2.6719
mp-1093602,Ba2ZnPb,0.7889999999999999
mp-5587,Ba2ZnS3,2.0205
mp-1079149,Ba2ZnSb2,0.4421999999999997
mp-558629,Ba2ZnSi2O7,4.0007
mp-1093764,Ba2ZnSn,0.0867
mp-1078410,Ba2ZnTeO6,0.4314999999999998
mp-557382,Ba2ZnWO6,3.4060000000000006
mp-1214740,Ba2Zr2(SiO4)3,4.2856
mp-568105,Ba2Zr6BCl17,1.0883000000000005
mp-769802,Ba2Zr7O16,3.7062
mp-1204722,Ba2ZrC8O19,0.4990999999999999
mp-5900,Ba2ZrF8,5.9374
mp-8335,Ba2ZrO4,2.9788
mp-3813,Ba2ZrS4,0.6025
mp-1228067,Ba2ZrSnO6,3.6849
mp-1078457,Ba2ZrTiO6,2.2094
mp-1202519,Ba3(AlAs2)2,1.0705
mp-17133,Ba3(AlN2)2,1.5661999999999998
mp-1202948,Ba3(AlP2)2,1.2813
mp-9783,Ba3(AsO4)2,3.9060000000000006
mp-30905,Ba3(BN2)2,2.5171
mp-755417,Ba3(BO3)2,4.1693
mp-1228327,Ba3(Br2Cl)2,4.3799
mp-752648,Ba3(BrO)2,2.2886
mp-1080464,Ba3(CdAs2)2,0.05679999999999996
mp-1178551,Ba3(ClO)2,2.439
mp-30904,Ba3(CrS3)2,0.6307999999999998
mp-18297,Ba3(GaN2)2,1.4937000000000005
mp-29302,Ba3(GaS3)2,2.6755000000000004
mp-675489,Ba3(Ge2C)2,0.4882000000000002
mp-643047,Ba3(H6Ir)2,3.1548000000000003
mp-19913,Ba3(InP2)2,1.1092
mp-772916,Ba3(LaI6)2,2.4533000000000005
mp-15753,Ba3(LiAs)4,0.2653000000000003
mp-1095406,Ba3(LiSb)4,0.05160000000000009
mp-745095,Ba3(Mo9O14)2,0.7694000000000001
mp-1228324,Ba3(NaSb2)2,0.6869000000000001
mp-1228675,Ba3(P3O11)2,0.2009
mp-1198010,Ba3(P3O13)2,0.4289
mp-3857,Ba3(PO4)2,5.1417
mp-554255,Ba3(PS4)2,2.1538
mp-571415,Ba3(PSe4)2,1.1278
mp-31238,Ba3(SbO3)2,2.9311
mp-27887,Ba3(Si2P3)2,0.4059999999999997
mp-11692,Ba3(SiAs2)2,0.8267000000000002
mp-17470,Ba3(SnAs2)2,0.7525
mp-601867,Ba3(SnP2)2,0.8645999999999998
mp-29354,Ba3(TaS4)2,0.7451999999999996
mp-776463,Ba3(YI6)2,2.6277
mp-1079622,Ba3(ZnAs2)2,0.0134000000000003
mp-1228791,Ba36Al9Sn23,0.14250000000000007
mp-1202832,Ba38Na58Li26H,0.05470000000000008
mp-570185,Ba38Na58Li26N,0.030500000000000194
mvc-15289,Ba3Al2(Sb2O7)3,1.3611
mp-14049,Ba3Al2(SiO4)3,3.2933
mp-1201953,Ba3Al2B10H4O23,4.9701
mp-556036,Ba3Al2Cu2F16,0.5436000000000001
mp-3361,Ba3Al2F12,6.8714
mp-1229132,Ba3Al2Ga2(FeO6)2,3.2132000000000005
mp-1204798,Ba3Al2O12,0.8061
mp-1196869,Ba3Al2O6,3.8411
mp-1203016,Ba3Al3As5,1.4291999999999998
mp-1196964,Ba3Al3P5,1.4655999999999998
mp-1192376,Ba3AlAs3,0.6582999999999997
mp-556863,Ba3AlF9,6.5801
mp-707218,Ba3AlHO4,4.0379000000000005
mp-1192373,Ba3AlP3,0.6848000000000001
mp-18439,Ba3AlSb3,0.4704999999999999
mp-524,Ba3As14,1.1763
mp-722774,Ba3As2H14S8O7,1.9766
mp-1194837,Ba3As2H34O25,4.1588
mp-1182848,Ba3As2S8O7,0.06889999999999996
mp-1195773,Ba3As4(HO7)2,3.3467
mp-1200496,Ba3B(BrO)3,3.7496
mp-6578,Ba3B(PO4)3,5.0114
mp-1194742,Ba3B3Pb2BrO9,3.2839
mp-1195317,Ba3B3Pb2ClO9,3.3658
mp-1199009,Ba3B6H2O13,4.8180000000000005
mp-1195844,Ba3B6O11F2,5.2512
mp-9793,Ba3BAsO3,1.5214
mp-9712,Ba3BPO3,1.4649
mp-554479,Ba3BPO7,3.3373
mp-1228181,Ba3Be2B5HO13,3.3868
mp-1200141,Ba3Bi(BO2)9,4.3193
mp-556855,Ba3Bi(ClO)3,3.9283
mp-555231,Ba3Bi2(PO4)4,3.7865
mp-675179,Ba3Bi2F12,5.1102
mp-1214589,Ba3Bi2I2O5,1.4181999999999997
mp-669415,Ba3Bi6PbSe13,0.7387999999999999
mp-1228361,Ba3BiIrRuO9,0.03259999999999952
mp-567666,Ba3BiN,0.6466000000000003
mp-1201184,Ba3CCl4O3,4.6612
mp-1019520,Ba3Ca2(SiN3)2,1.5518
mp-1228277,Ba3CaBi2O9,0.2218
mp-1214671,Ba3CaCuSi6O17,0.9908
mp-859126,Ba3CaI8,2.949
mp-1214569,Ba3CaNb2O9,2.6795000000000004
mp-1078915,Ba3CaO4,2.1109999999999998
mp-554817,Ba3CaSb2O9,3.1610000000000005
mp-1228141,Ba3CaTa2O9,3.2522
mp-1228204,Ba3CaTiWO9,3.1616
mp-1214580,Ba3Cd(SiO4)2,3.5629
mp-1228659,Ba3Cd(SnS4)2,2.0662000000000003
mp-581090,Ba3Ce2C5O15F2,2.7666
mp-861914,Ba3Co(CN)3,0.7976999999999999
mp-1198060,Ba3Co2(NO2)12,2.0984
mp-1228027,Ba3Co2WO9,0.3858999999999999
mp-1228226,Ba3Co3Te(PO7)2,2.4553
mp-1214703,Ba3Co8Sn3O20,0.15050000000000008
mp-1214566,Ba3CoO5,0.5822000000000003
mp-19337,Ba3CoSb2O9,1.8777
mp-1193538,Ba3Cr2MoO9,1.3072999999999997
mp-559226,Ba3Cr2WO9,2.0491
mp-19197,Ba3CrO5,1.5029000000000003
mp-559757,Ba3Cu2(ClO2)2,0.16800000000000015
mp-703291,Ba3CuP2Br3O7,2.8621
mp-1214634,Ba3Dy(BO2)9,5.160900000000002
mp-1214848,Ba3Dy(BO3)3,3.8454
mp-560798,Ba3Dy2(PS4)4,2.3736000000000006
mp-8974,Ba3Dy4O9,3.241
mp-706328,Ba3DyUFeO9,1.4773
mp-1214718,Ba3Er(BO2)9,5.1972
mp-1214885,Ba3Er(BO3)3,3.8533
mp-560534,Ba3Er2(PS4)4,2.3777000000000004
mp-8837,Ba3Er2Cu2PtO10,0.3004000000000002
mp-1228244,Ba3Er2MoO9,2.0503
mp-14853,Ba3Er4O9,3.2722000000000007
mp-1228526,Ba3Fe10SnO20,1.9535
mp-1228826,Ba3Fe2(Ge2O7)2,2.3042
mp-1201385,Ba3Fe26O41,0.4544999999999999
mp-565905,Ba3Fe2Br2O5,2.3991
mp-565952,Ba3Fe2Cl2O5,2.4379
mp-1198352,Ba3Fe2P4(O6F5)2,0.7062
mp-1228445,Ba3Fe2TeO9,1.7071
mp-1228376,Ba3Fe2WO9,1.5042
mp-1228512,Ba3Fe4P8PbO28,4.002599999999998
mp-1214965,Ba3Fe8Sn3O20,0.5508000000000002
mp-554139,Ba3Ga2(Ge2O7)2,2.2536
mp-1229265,Ba3Ga2B10H4O23,4.7837
mp-1019515,Ba3Ga3N5,1.4175999999999995
mp-1196108,Ba3Ga3P5,1.2440000000000002
mp-771132,Ba3Ga4O9,2.9232
mp-1195592,Ba3GaAs3,0.7357
mp-1029573,Ba3GaN3,0.2805
mp-541715,Ba3GaP3,0.601
mp-1204726,Ba3GaS4Br,3.0331
mp-1198976,Ba3GaS4Cl,3.1682999999999995
mp-28296,Ba3GaSb3,0.3418999999999999
mp-1205081,Ba3GaSe4Cl,2.6212
mp-1214653,Ba3Gd(BO2)9,3.7121
mp-684036,Ba3Gd2(PS4)4,1.4528000000000003
mp-1190744,Ba3GdInS6,1.9019
mp-1194165,Ba3Ge2(B3O8)2,4.1573
mp-1204343,Ba3Ge9O22,0.13449999999999995
mp-17833,Ba3GeO,0.3709000000000002
mp-778602,Ba3GeO5,2.9102
mp-754128,Ba3Hf2O7,3.5653
mp-1214639,Ba3Ho(BO2)9,5.1757
mp-14384,Ba3Ho(BO3)3,3.8221
mp-559171,Ba3Ho2(PS4)4,2.3799
mp-558231,Ba3Ho2Cu2PtO10,0.3026
mp-1228250,Ba3Ho2MoO9,2.1073
mp-14323,Ba3Ho4O9,3.2561
mp-1214536,Ba3HoRu2O9,0.028699999999999726
mp-694975,Ba3HoUFeO9,1.4135
mp-556038,Ba3In(BO2)9,4.7243
mp-866313,Ba3In(BO3)3,3.4878
mp-740719,Ba3In2(HO)12,3.2603
mp-1200796,Ba3In2(PO4)4,3.7189
mp-556004,Ba3In2Br2O5,1.2907000000000002
mp-559933,Ba3In2Cl2O5,1.4312
mp-28274,Ba3In2F12,4.5144
mp-1228643,Ba3In2MoO9,1.8282000000000005
mp-21445,Ba3In2O5F2,1.5869000000000004
mp-20352,Ba3In2O6,0.8820000000000001
mp-1195167,Ba3In2P6(HO3)6,4.7805
mp-1228476,Ba3In2WO9,2.6712
mp-679985,Ba3In4(CuO4)3,0.2652999999999999
mp-620346,Ba3InAs3,0.5167000000000002
mp-1228718,Ba3InIrRuO9,0.008799999999999919
mp-22352,Ba3InRu2O9,0.008000000000000007
mp-1106080,Ba3Ir(CN)3,0.6961000000000004
mp-6446,Ba3La2(BO3)4,4.0127
mp-771951,Ba3La2Br12,3.2308000000000003
mp-581361,Ba3La2C5O15F2,3.9044
mp-771914,Ba3La2Cl12,3.9776
mp-1228337,Ba3La2Ti2Nb2O15,2.3849
mp-705457,Ba3La2Ti3Cr2O15,1.5316
mp-705482,Ba3La3Mn2(WO6)3,1.4413999999999998
mp-677222,Ba3La3Ti4NbO18,2.4083
mp-697840,Ba3La7Ti3Cr7O30,1.7675999999999998
mp-695278,Ba3La9Mg7Nb5O36,2.9983000000000004
mp-772024,Ba3LaBr9,3.031
mp-771948,Ba3LaCl9,3.7824
mp-772034,Ba3LaI9,2.2280999999999995
mp-705477,Ba3LaIn(WO6)2,3.0435
mp-1228150,Ba3LaNb3O12,2.6407000000000003
mp-1228180,Ba3LaTa3O12,3.1664
mp-1228930,Ba3LaV3O12,3.2182000000000004
mp-705508,Ba3LaZnReWO12,2.0438
mp-1197500,Ba3Li2B10(H3O11)2,5.4408
mp-699932,Ba3Li2Mo4P6(ClO14)2,2.1138
mp-647476,Ba3Li2V2Cl4O7,3.1302
mp-542122,Ba3LiRu2O9,0.07799999999999985
mp-677212,Ba3LiTa3Ti5O21,2.2708000000000004
mp-766108,Ba3LiTi5(SbO7)3,2.3975
mp-766208,Ba3LiTi5Nb3O21,2.0419
mp-561253,Ba3Lu(BO2)9,5.247299999999999
mp-14386,Ba3Lu(BO3)3,3.8583
mp-1228133,Ba3Lu2MoO9,1.9335
mp-554066,Ba3Lu2Zn5O11,2.2892
mp-542832,Ba3Lu4O9,3.1681000000000004
mp-556703,Ba3Mg(SiO4)2,4.6934000000000005
mp-1019521,Ba3MgGeN4,1.2902
mp-6474,Ba3MgNb2O9,2.648
mp-16978,Ba3MgSb2O9,2.6494
mp-1228058,Ba3MgTaNbO9,2.8733
mp-1228118,Ba3MgTiWO9,3.0783
mp-1195880,Ba3MgV4O14,3.2114000000000003
mp-1228074,Ba3Mn2IrO9,0.10849999999999982