task_id,pretty_formula,band_gap
mp-774378,Li3Mn2Fe(BO3)3,2.6337
mp-767643,Li3Mn2Fe(BO3)4,1.3956
mp-778025,Li3Mn2FeO6,0.415
mp-762611,Li3Mn2Ni5O12,0.3139000000000003
mp-691164,Li3Mn2O4,0.07070000000000043
mp-1173962,Li3Mn2O5,0.8340000000000001
mp-767181,Li3Mn2OF5,2.1431000000000004
mp-1177646,Li3Mn2P2(CO7)2,0.6349
mp-763234,Li3Mn2P2(O4F)2,0.6420999999999997
mp-780148,Li3Mn2P4HO14,4.1265
mp-1177635,Li3Mn2SbO6,0.3059000000000003
mp-775642,Li3Mn2V3O12,1.0555
mp-762584,Li3Mn2V5O12,0.4797000000000002
mp-772057,Li3Mn2VO6,0.6628000000000001
mp-767638,Li3Mn3(BO3)4,0.7257
mp-767669,Li3Mn3(FeO5)2,0.9265
mp-766159,Li3Mn3(OF)4,0.7464
mp-585338,Li3Mn3(PO4)4,0.6478
mp-1177699,Li3Mn3CrO8,0.04449999999999976
mp-863869,Li3Mn3FeO8,0.18990000000000015
mp-762635,Li3Mn3NiO8,0.3784000000000001
mp-766975,Li3Mn3O3F5,0.5356000000000001
mp-767119,Li3Mn3O5F3,0.7765
mp-764352,Li3Mn3OF7,2.2852
mp-761765,Li3Mn3SiO8,0.9150000000000004
mp-777784,Li3Mn4(BO3)4,0.20970000000000025
mp-769530,Li3Mn4(FeO6)2,0.3988
mp-1177764,Li3Mn4(P2O7)4,0.007199999999999984
mp-767970,Li3Mn4(PO4)6,0.4279
mp-777954,Li3Mn4F19,1.3967
mp-762841,Li3Mn4P3H12O19,2.5572
mp-775491,Li3Mn5(CoO6)2,0.058000000000000274
mp-849955,Li3Mn5(FeO6)2,0.1477999999999997
mp-762753,Li3Mn5(NiO6)2,0.4935999999999998
mp-1177609,Li3Mn5(PO4)6,0.1612
mp-850947,Li3Mn5Cr2O12,0.05410000000000004
mp-775496,Li3Mn5Cr3O16,1.2546
mp-775538,Li3Mn5FeO12,0.2355999999999998
mp-763693,Li3Mn5O10,0.6205000000000003
mp-765897,Li3Mn5O2F9,1.7742
mp-764394,Li3Mn5OF11,2.4186
mp-772241,Li3MnAl2O6,1.7656999999999998
mp-770591,Li3MnAlO4,0.8266999999999998
mp-771444,Li3MnAsCO7,2.3055000000000003
mp-771178,Li3MnB4O9,0.7447999999999999
mp-779068,Li3MnB6O13,1.4548
mp-777632,Li3MnB8O15,1.3799
mp-771436,Li3MnBAsO7,0.9887
mp-771732,Li3MnBPO7,1.1598000000000002
mp-775622,Li3MnCo3O8,0.4676999999999998
mp-1222510,Li3MnCoNiO6,1.0861999999999998
mp-1173984,Li3MnCoO5,1.1939000000000002
mp-774249,Li3MnCr2O6,0.5482999999999998
mp-1177618,Li3MnCr3O8,1.7146000000000003
mp-769831,Li3MnCr4O8,0.6288
mp-780643,Li3MnCu3O8,0.0444
mp-763014,Li3MnF5,3.8533
mp-763801,Li3MnF6,1.7229
mp-765198,Li3MnF7,1.554
mp-774348,Li3MnFe2(BO3)3,2.8263
mp-771462,Li3MnFe3O8,1.6051000000000002
mp-1177625,Li3MnFeCo(PO4)3,2.2648
mp-767306,Li3MnO2F,0.6114999999999999
mp-773331,Li3MnO3,1.3918
mp-779954,Li3MnOF3,2.3220000000000005
mp-767174,Li3MnOF4,1.1135
mp-1199210,Li3MnP2(O3F2)2,1.5912000000000002
mp-780319,Li3MnP2H2O9,0.8976
mp-775205,Li3MnP2HO8,4.174
mp-25666,Li3MnPCO7,3.6835
mp-761570,Li3MnPO5,2.2055
mp-780126,Li3MnSi2O7,0.9105
mp-771859,Li3MnSiBO7,1.5078999999999998
mp-772668,Li3MnSiCO7,0.8431000000000002
mp-780637,Li3MnSiO5,0.2348999999999999
mp-850951,Li3MnV(P2O7)2,2.1375
mp-778788,Li3MnV(PO4)3,0.9356
mp-773501,Li3MnV2O6,0.3508
mp-773230,Li3MnV3O8,0.7584999999999997
mp-775779,Li3MnV4O8,0.8022999999999998
mp-765960,Li3MnVP2(HO5)2,2.0258
mp-763904,Li3MnVP2(O4F)2,1.5363000000000002
mp-540212,Li3Mo(PO3)8,1.1815000000000002
mp-1101528,Li3Mo(PO4)2,4.2613
mp-540140,Li3Mo2(PO4)3,4.0953
mp-699602,Li3Mo2P3O14,1.2828000000000004
mp-585177,Li3Mo2P5O18,1.5483
mp-582900,Li3Mo3P3O17,1.8735
mp-705470,Li3Mo4P5O24,2.5369
mp-705341,Li3Mo4P9O32,1.8223
mp-540076,Li3MoP2O9,1.4547
mp-2251,Li3N,0.984
mp-772463,Li3Nb(CoO2)4,1.7009000000000003
mp-1177575,Li3Nb(FeO2)4,1.9034
mp-775028,Li3Nb(NiO2)4,2.0064
mp-773304,Li3Nb2CrO6,0.35299999999999976
mp-767933,Li3Nb2Fe3O10,1.6023999999999998
mp-774018,Li3Nb2VO6,0.4786999999999999
mp-777751,Li3Nb3P8O29,2.4834
mp-754751,Li3Nb3TeO12,2.0593
mp-1222641,Li3Nb4CuO12,1.0671
mp-772009,Li3Nb4NiO12,0.6280000000000001
mp-772176,Li3Nb7O19,2.0609
mp-763729,Li3NbFe3O8,0.8292999999999999
mp-777766,Li3NbHO2F7,2.5571
mp-762552,Li3NbNi3O8,0.2516000000000003
mp-31488,Li3NbO4,3.7757
mp-769384,Li3NbOF6,4.9368
mp-757765,Li3NbP3O11,0.7343999999999999
mp-769032,Li3NbS4,1.4084000000000003
mp-769967,Li3NbV3O8,0.7048000000000001
mp-15362,Li3Nd2(BO3)3,4.7523
mp-1213390,Li3Nd2(N3O10)3,0.7879999999999999
mp-723059,Li3Nd2H6(N3O10)3,3.5123
mp-677627,Li3Nd3(TeO6)2,3.1314
mp-566555,Li3Nd3(WO6)2,3.6606
mp-8406,Li3NdAs2,0.03580000000000005
mp-771081,Li3Ni(BO2)5,4.1018
mp-770786,Li3Ni(BO3)2,0.01849999999999996
mp-764831,Li3Ni(OF)2,0.5730999999999999
mp-540367,Li3Ni(PO4)2,0.18869999999999987
mp-763542,Li3Ni2(CO3)4,0.0181
mp-861149,Li3Ni2(PO3)7,4.0726
mp-504228,Li3Ni2(PO4)3,0.09640000000000004
mp-765785,Li3Ni2O2F3,2.2142
mp-859785,Li3Ni2OF5,0.4111999999999999
mp-771666,Li3Ni2SbO6,1.2584999999999995
mp-504236,Li3Ni3(PO4)4,0.09510000000000007
mp-764901,Li3Ni3O3F5,0.2909999999999999
mp-765792,Li3Ni3OF7,3.5293
mp-765443,Li3Ni4O4F3,2.2384
mp-774126,Li3Ni4SbO8,1.6713000000000005
mp-765843,Li3Ni5OF11,3.4555
mp-1177647,Li3Ni7O12,0.03909999999999991
mp-771419,Li3NiAsCO7,3.3239
mp-1211465,Li3NiF6,2.219
mp-765537,Li3NiO2F,2.6784
mp-773516,Li3NiO3,1.4144
mp-765526,Li3NiOF3,1.9121
mp-767883,Li3NiPCO7,3.1009
mp-736,Li3P,0.6996000000000002
mp-722502,Li3P11(H3N)17,1.9668
mp-763373,Li3P2WO8,3.9504
mp-763529,Li3P2WO9,3.3444000000000003
mp-777465,Li3P3(WO6)2,3.6739
mp-763411,Li3P3WO11,3.9678
mp-28336,Li3P7,1.7927
mp-853176,Li3P7W5O29,2.2117
mp-13725,Li3PO4,5.8180999999999985
mp-25656,Li3PWCO7,0.7744999999999997
mp-13772,Li3Pr2(BO3)3,4.7278
mp-1211386,Li3Pr3(TeO6)2,3.1107000000000005
mp-1111070,Li3RhF6,1.8808
mp-2074,Li3Sb,0.6960999999999999
mp-774714,Li3Sb(PO4)2,3.1539
mp-767088,Li3Sb11S18,0.6052999999999997
mp-767137,Li3Sb17S27,0.5084
mp-684539,Li3Sb2(PO4)3,3.4734
mp-26586,Li3Sb2P5O18,1.7827000000000002
mp-27111,Li3Sb3(PO4)4,3.0469
mp-776510,Li3Sb3P8O29,2.6023
mp-26281,Li3Sb5(PO4)6,3.9629
mp-1111149,Li3SbCl6,2.8968000000000003
mp-1110577,Li3SbF6,3.3865
mp-777963,Li3SbH18S4O9,2.1608
mp-769129,Li3SbN3(O3F)3,3.3378
mp-756935,Li3SbO3,2.894
mp-5769,Li3SbO4,3.0560000000000005
mp-1194339,Li3SbS3,2.4180999999999995
mp-756316,Li3SbS4,2.1452
mp-557012,Li3Sc(BO3)2,4.5439
mp-6565,Li3Sc2(PO4)3,4.7407
mp-686004,Li3ScCl6,3.989
mp-560890,Li3ScF6,6.6719
mp-774070,Li3Si2(NiO4)2,1.0103000000000002
mp-757200,Li3Si2Bi3O10,3.1689999999999996
mp-757466,Li3Si2BiO7,3.783700000000001
mp-761595,Li3Si6NiO15,1.6989000000000003
mp-768609,Li3SiBiCO7,3.4372000000000003
mp-758245,Li3SiBiO5,3.2412
mp-765909,Li3SiNi3O8,0.2410000000000001
mp-767827,Li3SiNiO5,0.9584
mp-771304,Li3SiSbCO7,3.4543
mp-770756,Li3SiSnBO7,3.5191
mp-1211228,Li3Sm2(BO3)3,4.8281
mp-1211256,Li3Sm3(TeO6)2,3.1526
mp-768284,Li3Sn(BO2)5,3.761
mp-770286,Li3Sn(BO3)2,1.7273
mp-673096,Li3Sn(PO3)6,0.2216
mp-758002,Li3Sn(PO4)2,0.2486000000000001
mp-757560,Li3Sn2(PO3)7,4.3251
mp-26701,Li3Sn2(PO4)3,2.4793
mp-684470,Li3Sn2P5O16,4.0922
mp-757551,Li3Sn3(PO4)4,0.2523999999999997
mp-767456,Li3Ta5Cu2O15,1.2672000000000003
mp-772220,Li3Ta7O19,2.8734
mp-3151,Li3TaO4,4.5636
mp-1212130,Li3Tb(NO3)6,3.089
mp-1211213,Li3Tb3(TeO6)2,3.1732000000000005
mp-696949,Li3TeHO4,3.5927
mp-27761,Li3ThF7,5.6858
mp-770194,Li3Ti(BO3)2,0.2129999999999992
mp-771086,Li3Ti(CoO2)4,0.08919999999999995
mp-771201,Li3Ti(FeO2)4,0.7958000000000003
mp-757905,Li3Ti(PO4)2,0.14219999999999988
mp-772545,Li3Ti(Si2O5)3,0.3088999999999995
mp-781664,Li3Ti2(CoO4)2,0.5937999999999999
mp-762702,Li3Ti2(FeO4)2,1.0143
mp-765494,Li3Ti2(NiO4)2,0.5497000000000001
mp-25839,Li3Ti2(PO4)3,0.11770000000000015
mp-762831,Li3Ti2Co3O10,0.4455999999999998
mp-769994,Li3Ti2CoO6,0.28000000000000025
mp-849652,Li3Ti2Cu3O10,0.020099999999999785
mp-774874,Li3Ti2CuO6,0.2154999999999996
mp-762694,Li3Ti2Fe3O10,1.6441999999999997
mp-762872,Li3Ti2Mn3O10,0.9013
mp-763830,Li3Ti2Mn5O12,0.5962000000000001
mp-763639,Li3Ti2V3O10,1.6465
mp-765164,Li3Ti2V3O12,0.9330999999999998
mp-743728,Li3Ti3Fe(PO4)6,2.4059
mp-764391,Li3TiCo3O8,0.6397999999999997
mp-770070,Li3TiCr3O8,2.3315
mp-21540,Li3TiF6,0.1575000000000002
mp-764006,Li3TiFe3O8,1.8205
mp-763628,Li3TiMn3O8,1.1443
mp-766449,Li3TiSiO5,0.02629999999999999
mp-770960,Li3TiV3O8,1.5812
mp-1110576,Li3TlF6,3.3885
mp-1212059,Li3Tm(NO3)6,3.0842
mp-1211248,Li3Tm3(TeO6)2,3.1184
mp-1223319,Li3U7(AsO7)5,1.7583
mp-557826,Li3U7(PO7)5,1.925
mp-551675,Li3UO4,0.3780000000000001
mp-770344,Li3V(BO2)5,2.6285
mp-772628,Li3V(BO3)2,2.3124
mp-762048,Li3V(CO3)3,2.9532
mp-771108,Li3V(FeO2)4,0.10720000000000064
mp-764205,Li3V(FeO3)2,1.1707999999999998
mp-1201415,Li3V(H4O3)4,4.0798000000000005
mp-765836,Li3V(OF)2,1.1774999999999998
mp-540311,Li3V(PO4)2,2.1261
mp-761611,Li3V(Si2O5)3,2.4128
mp-767592,Li3V(SiO3)3,2.2683000000000004
mp-771850,Li3V(TeO3)4,1.9196
mp-1177515,Li3V2(CO3)4,0.13169999999999993
mp-763565,Li3V2(CO5)2,0.001100000000000101
mp-763659,Li3V2(FeO4)2,0.9148
mp-1177514,Li3V2(NiO4)2,1.4551000000000005
mp-765943,Li3V2(O2F)2,0.8773
mp-765357,Li3V2(OF)3,1.2123000000000002
mp-776500,Li3V2(OF)4,1.2909
mp-19615,Li3V2(PO4)3,1.8647
mp-780138,Li3V2(SiO5)2,1.5817
mp-1177621,Li3V24O58,0.9036
mp-850135,Li3V2Cr2O8,0.8428000000000004
mp-771655,Li3V2CrO6,1.8866
mp-1177527,Li3V2F12,0.2008000000000001
mp-1177500,Li3V2F8,0.4735
mp-767772,Li3V2F9,2.2881
mp-763749,Li3V2Fe3O10,1.2992
mp-771840,Li3V2FeO6,1.0766999999999998
mp-1177535,Li3V2H4(OF5)2,0.6956
mp-762268,Li3V2O6,1.3017
mp-764195,Li3V2OF7,2.1573
mp-763720,Li3V2P2O8F3,2.3586
mp-781078,Li3V2P4(HO8)2,0.9395000000000002
mp-697772,Li3V2P5O18,1.1216000000000002
mp-769588,Li3V2S2(O4F3)2,1.0314
mp-770155,Li3V3(BO5)2,1.2932
mp-776910,Li3V3(CoO6)2,1.2374
mp-762685,Li3V3(FeO5)2,1.4220000000000002
mp-775234,Li3V3(FeO6)2,2.4519
mp-32528,Li3V3(PO4)4,2.0374
mp-1177534,Li3V3CoO8,0.8869000000000002
mp-850150,Li3V3Cr2O10,1.1662999999999997
mp-769596,Li3V3CrO8,0.9017
mp-771072,Li3V3FeO8,0.9312
mp-765397,Li3V3O3F5,0.8613999999999997
mp-765861,Li3V3O5F3,1.072
mp-1177493,Li3V3O8,1.2366
mp-1177582,Li3V3P8O29,1.2206
mp-1177488,Li3V3SbO8,0.7475999999999994
mp-766144,Li3V4(OF3)3,1.8959
mp-768076,Li3V4(PO4)6,0.6562000000000001
mp-777000,Li3V4CrO8,0.5800999999999998
mp-772122,Li3V4CuO12,1.1290000000000002
mp-776830,Li3V4F19,1.3893
mp-1177479,Li3V4FeO12,1.1647000000000003
mp-775775,Li3V4FeO8,0.6304999999999996
mp-772005,Li3V4NiO12,0.07750000000000012
mp-765601,Li3V4O11F,1.9948
mp-765451,Li3V4O5F7,1.1932999999999998
mp-765375,Li3V4O7F5,1.1683
mp-762790,Li3V4P2O8F9,1.9562
mp-705002,Li3V4P9O32,1.3475
mp-775037,Li3V4SnO12,1.3980000000000006
mp-1204473,Li3V5(H8O11)2,2.4457
mp-1177556,Li3V5(PO4)6,1.9084
mp-781743,Li3V5Cr2O12,0.41300000000000026
mp-762265,Li3V5O10,1.1776
mp-777032,Li3V5O12,1.5843000000000005
mp-770775,Li3V5O14,2.3933
mp-1177719,Li3V5O8,0.5522999999999998
mp-774013,Li3V6Fe4(CuO12)2,0.021399999999999864
mp-542665,Li3V6O13,0.6075999999999997
mp-762285,Li3V7O12,1.0818999999999996
mp-1177632,Li3V8O11,0.1706000000000003
mp-1177934,Li3V8O16,1.0549999999999995
mp-1177474,Li3VAs2O9,1.7558
mp-770148,Li3VB4O9,2.7324
mp-770335,Li3VBO5,1.8590000000000004
mp-770014,Li3VBPO7,2.1828000000000003
mp-765133,Li3VCr(P2O7)2,0.6295999999999999
mp-770041,Li3VCr2O6,1.874
mp-769583,Li3VCr3O8,1.5089000000000006
mp-1177611,Li3VCr4O8,0.040599999999999525
mp-767626,Li3VCrP2(HO5)2,0.9819999999999998
mp-766992,Li3VCrP2(O4F)2,0.5934999999999997
mp-861532,Li3VF5,2.5098000000000003
mp-558578,Li3VF6,2.4336
mp-765182,Li3VF7,1.9246000000000003
mp-766951,Li3VF8,1.9215
mp-1177512,Li3VFe(P2O7)2,1.9046000000000003
mp-773273,Li3VFe3O8,1.3331
mp-1177545,Li3VFeP2(O4F)2,1.7913
mp-764730,Li3VO3F,1.9894
mp-853164,Li3VO3F2,3.3379000000000003
mp-583094,Li3VO4,3.9389999999999996
mp-849369,Li3VOF4,0.20639999999999992
mp-765453,Li3VOF5,2.1467
mp-765240,Li3VOF6,3.1774
mp-774317,Li3VP2H2O9,2.4006000000000003
mp-779236,Li3VP2HO8,3.0833
mp-763424,Li3VP3O11,1.4117
mp-25638,Li3VPCO7,2.833
mp-760375,Li3VS4,1.8832
mp-767929,Li3VSi2O7,2.1006
mp-770607,Li3VSi4(HO6)2,2.3287000000000004
mp-771551,Li3VSiBO7,1.5995
mp-770088,Li3VSiCO7,2.1406999999999994
mp-767742,Li3VSiO5,1.6548999999999996
mp-1212171,Li3Y(NO3)6,3.0974
mp-1211286,Li3Y2(BO3)3,4.7888
mp-1211226,Li3Y3(TeO6)2,3.2219999999999995
mp-755289,Li3Y3ZrO8,4.1806
mp-1147619,Li3YBr6,4.2254
mp-1110575,Li3YF6,5.3213
mp-1029592,Li3YN2,2.0798
mp-1212254,Li3Yb(NO3)6,0.05010000000000003
mp-673763,Li3YbCl6,0.5603
mp-772754,Li3YbPCO7,5.0103
mp-771780,Li3Zn(Fe5O8)4,0.9998000000000004
mp-1177501,Li3Zn2Fe19O32,1.3264
mp-557328,Li3Zn2SbO6,2.4602
mp-1223044,Li3ZnFe2(PO4)3,3.5529
mp-772753,Li3ZnPCO7,4.3436
mp-771710,Li3Zr4(PO4)6,0.048199999999999577
mp-29040,Li3Zr4F19,5.6198
mp-754249,Li3ZrNb(TeO6)2,1.8759
mp-699137,Li4(CoO2)7,0.7873000000000001
mp-762455,Li4(FeO2)5,0.3161999999999998
mp-1211266,Li4(MoO4)3,0.00649999999999995
mp-762385,Li4(NiO2)11,0.7852999999999999
mp-763578,Li4(NiO2)5,0.4896000000000002
mp-775402,Li4(NiO2)7,0.3752999999999997
mp-1177487,Li47(CoO4)8,0.6686999999999999
mp-850945,Li47(NiO4)8,1.067
mp-532007,Li47Cu7N18,0.17200000000000015
mp-532427,Li47Mn5As19,0.0224000000000002
mp-1001069,Li48P16S61,2.2955
mp-676829,Li49Cu8N19,0.17039999999999988
mp-770625,Li4Al3Cr3(SbO8)2,2.5052000000000003
mp-554733,Li4Al3Ge3BrO12,3.8061
mp-556886,Li4Al3Ge3ClO12,4.2892
mp-557456,Li4Al3Ge3IO12,3.1208
mp-23648,Li4Al3Si3ClO12,5.2612000000000005
mp-769980,Li4AlCr3O8,3.1818000000000004
mp-768884,Li4B2O5,4.971
mp-768968,Li4B4Sb2SO16,2.5610000000000004
mp-1222565,Li4B7ClO12,5.8751
mp-1201205,Li4BH10N3,3.5641
mp-1211214,Li4Be3As3BrO12,3.8403
mp-560072,Li4Be3As3ClO12,4.5888
mp-554560,Li4Be3P3BrO12,5.864999999999998
mp-560894,Li4Be3P3ClO12,6.2182
mp-1211168,Li4Be3P3IO12,5.374
mp-768991,Li4Bi2C4SO16,1.9868
mp-756718,Li4Bi2O5,2.6846
mp-753429,Li4Bi2S7,0.916
mp-550320,Li4CO4,4.9149
mp-557467,Li4Ca(BO3)2,4.7254
mp-1195450,Li4Ca2B16(H2O5)7,5.096
mp-1020016,Li4Ca2Mg(SiN3)2,3.2799
mp-567219,Li4Ca3(SiN3)2,2.2904
mp-1222663,Li4Ca3Nb6O20,1.3592
mp-1202263,Li4CaB10(HO5)4,4.887
mp-777140,Li4CaNiO4,2.6919000000000004
mp-1177472,Li4Co(BO3)2,2.8434
mp-853163,Li4Co(OF)2,1.8578
mp-31539,Li4Co(PO4)2,3.2951
mp-763364,Li4Co(SiO3)3,2.9379
mp-763412,Li4Co13O28,0.4614
mp-997525,Li4Co15O28,0.8614999999999999
mp-1177505,Li4Co2(PO4)3,0.030499999999999968
mp-770515,Li4Co2C4SO16,0.041000000000000036
mp-776757,Li4Co2Ni3Sn(PO4)6,2.5987000000000005
mp-1177650,Li4Co2Ni5O12,0.038000000000000256
mp-853142,Li4Co2OF7,1.2875
mp-763396,Li4Co2Si3O10,2.8755
mp-765689,Li4Co3(OF3)2,2.5015
mp-770952,Li4Co3Ni(PO4)4,2.5693
mp-775507,Li4Co3Ni2Sn3O16,0.8542000000000005
mp-764321,Li4Co3Ni3(WO8)2,0.0019000000000000128
mp-772319,Li4Co3Ni5O16,0.6710000000000003
mp-1174197,Li4Co3O7,0.8248000000000002
mp-849532,Li4Co3OF11,1.0743
mp-763942,Li4Co3OF8,1.9489000000000003
mp-779263,Li4Co3P4(H3O4)6,2.9627
mp-778636,Li4Co3P4O15,2.8711
mp-1177495,Li4Co3SbO8,0.8232000000000004
mp-761455,Li4Co3Sn(PO4)4,1.5606999999999998
mp-776826,Li4Co3Sn3(SbO8)2,0.375
mp-1177466,Li4Co3Sn5O16,0.6744000000000003
mp-773978,Li4Co3TeO8,0.7389999999999999
mp-769960,Li4Co3WO8,1.931
mp-780032,Li4Co4(OF3)3,0.3823
mp-31615,Li4Co5(P3O11)2,1.8052999999999997
mp-773165,Li4Co5CuO12,0.07779999999999987
mp-849667,Li4Co5O9F,0.2385999999999999
mp-765676,Li4Co7(OF7)2,2.0283
mp-771197,Li4Co7O16,0.4103999999999999
mp-764264,Li4Co7O3F13,0.8342
mp-853138,Li4CoNi3(PO4)4,2.6704000000000003
mp-868358,Li4CoNi3O8,0.0690000000000004
mp-772703,Li4CoNi5O12,0.18840000000000007
mp-769791,Li4CoO3,2.4108
mp-850010,Li4CoO3F,1.9314
mp-765685,Li4CoOF4,0.017400000000000304
mp-1222544,Li4CoRuO6,0.5249000000000001
mp-762181,Li4CoSn3(PO4)4,1.8892999999999995
mp-1222462,Li4CoTeO6,2.1917000000000004
mp-31722,Li4Cr(PO4)2,1.4126
mp-766619,Li4Cr(PO4)3,1.3127000000000002
mp-778824,Li4Cr(WO4)3,1.6962000000000006
mp-1177462,Li4Cr2(PO4)3,1.1803
mp-771912,Li4Cr2C4SO16,2.2881
mp-767087,Li4Cr2Co3Sb3O16,0.54
mp-780315,Li4Cr2Fe3O10,0.9619999999999996
mp-774252,Li4Cr2Fe3Sb3O16,0.8067000000000002
mp-850397,Li4Cr2Fe5O12,1.2824999999999998
mp-764319,Li4Cr2Ni3Sb3O16,0.05250000000000021
mp-778614,Li4Cr2Ni3Sn(PO4)6,1.9375
mp-775071,Li4Cr2Ni3Te3O16,0.9577999999999998
mp-774141,Li4Cr2P4H3O16,0.9188
mp-762405,Li4Cr2Si3O10,2.3486
mp-762874,Li4Cr2Si4O13,3.0944
mp-775566,Li4Cr2TeWO12,0.6551
mp-1177456,Li4Cr3(CO3)6,0.5532000000000004
mp-763111,Li4Cr3(CoO4)3,0.7501000000000002
mp-780090,Li4Cr3(FeO4)3,0.12799999999999967
mp-761995,Li4Cr3Co(PO4)4,0.5533999999999999
mp-764773,Li4Cr3Co2Sb3O16,0.6461999999999999
mp-775520,Li4Cr3Co2Sn3O16,0.2298
mp-763597,Li4Cr3Co3(NiO8)2,0.9629
mp-770264,Li4Cr3CoO8,0.8600999999999996
mp-773763,Li4Cr3Fe2Sb3O16,0.5901000000000001
mp-775748,Li4Cr3Fe2Sn3O16,0.738
mp-771925,Li4Cr3Fe3(SbO8)2,1.6780000000000002
mp-775073,Li4Cr3Fe3(SnO8)2,0.4682
mp-773518,Li4Cr3Fe3(TeO8)2,0.0015999999999998238
mp-764089,Li4Cr3Fe3(WO8)2,1.3455000000000004
mp-770328,Li4Cr3FeO8,2.1697
mp-770277,Li4Cr3GaO8,3.2245000000000004
mp-761372,Li4Cr3Ni(PO4)4,1.4589999999999996
mp-769736,Li4Cr3Ni2Sb3O16,0.5766999999999998
mp-775694,Li4Cr3Ni2Sn3O16,0.8386
mp-761720,Li4Cr3Ni3(WO8)2,0.2578999999999998
mp-769743,Li4Cr3NiO8,0.4365999999999999
mp-772353,Li4Cr3O8,0.2410999999999999
mp-773417,Li4Cr3P4O15,2.6174
mp-775684,Li4Cr3Sn3(TeO8)2,1.1035000000000004
mp-780109,Li4Cr5(P3O11)2,1.9217
mp-771854,Li4Cr5Co3O16,0.0472999999999999
mp-770975,Li4Cr5FeO12,0.021399999999999864
mp-775869,Li4Cr5SbO12,1.4181
mp-770671,Li4Cr5Sn3O16,0.2054999999999998
mp-772008,Li4Cr5WO12,1.4360999999999997
mp-778357,Li4Cr7(PO4)6,2.1866000000000003
mp-775998,Li4CrBi(TeO6)2,0.4877000000000002
mp-762038,Li4CrCo3(PO4)4,1.0944000000000005
mp-765937,Li4CrCo3O8,0.3300000000000001
mp-771505,Li4CrCo5O12,0.14769999999999994
mp-769875,Li4CrF6,3.0117
mp-770069,Li4CrFe(WO6)2,0.7415
mp-776753,Li4CrFe2Ni3(PO4)6,1.4206
mp-1177494,Li4CrFe3Cu2(PO4)6,0.3369
mp-770076,Li4CrFe3O8,1.8474000000000004
mp-1177657,Li4CrFe3Sn2(PO4)6,1.7288
mp-771731,Li4CrGa3O8,1.3628000000000002
mp-770612,Li4CrH8SO7,2.5109
mp-767198,Li4CrNi3(PO4)4,1.5358999999999998
mp-772434,Li4CrO4,1.7266
mp-763239,Li4CrP2(O4F)2,0.425
mp-540457,Li4CrP2O9,0.02190000000000003
mp-775207,Li4CrP6(H4O11)2,2.736
mp-766971,Li4CrS4,0.4588999999999999
mp-781050,Li4CrSb(TeO6)2,1.2358000000000002
mp-764950,Li4CrSb(WO6)2,1.5482
mp-760683,Li4Cu(PO3)6,0.8013000000000001
mp-26223,Li4Cu(PO4)2,0.039800000000000064
mp-781690,Li4Cu2Ni3Sb3O16,0.0905999999999998
mp-850174,Li4Cu2Ni5O12,0.10309999999999996
mp-757514,Li4Cu2Si3O10,0.33009999999999984
mp-771990,Li4Cu3WO8,0.17200000000000015
mp-769256,Li4Cu4Cl10O,0.04679999999999995
mp-761187,Li4Cu5(P3O11)2,0.03379999999999983
mp-760791,Li4Cu5F17,0.10029999999999983
mp-752773,Li4CuF5,1.0967000000000002
mp-759877,Li4CuF7,0.6795
mp-767664,Li4CuNi3(PO4)4,0.1019000000000001
mp-764381,Li4CuNi3O8,0.019000000000000128
mp-1211177,Li4CuSbO6,0.5726999999999998
mp-756422,Li4CuSi2O7,0.6356999999999997
mp-769681,Li4Fe(BO3)2,3.779500000000001
mp-764561,Li4Fe(OF)2,2.9078
mp-762422,Li4Fe(PO3)6,4.3787
mp-31890,Li4Fe(PO4)2,3.9187
mp-762541,Li4Fe(SiO3)3,3.0729
mp-762704,Li4Fe(SiO4)2,0.23229999999999995
mp-777225,Li4Fe(WO4)3,1.4726000000000004
mp-773718,Li4Fe2(PO4)3,1.5436
mp-781611,Li4Fe2C4SO16,1.5539
mp-764902,Li4Fe2Co3Sb3O16,0.9088000000000004
mp-767200,Li4Fe2Co3Te3O16,1.1970999999999998
mp-764048,Li4Fe2Ni3Sb3O16,0.6627000000000005
mp-781476,Li4Fe2Ni3Sn(PO4)6,3.0225000000000004
mp-775337,Li4Fe2Ni3Sn3O16,0.18889999999999985
mp-1177446,Li4Fe2Ni3Te(PO4)6,2.8661
mp-779164,Li4Fe2Ni3Te3O16,1.0670000000000002
mp-765505,Li4Fe2O5,2.1432
mp-776724,Li4Fe2OF8,2.6715
mp-1177422,Li4Fe2P4H3O16,1.4178
mp-761394,Li4Fe2Si3O10,3.1586000000000003
mp-762844,Li4Fe2Si4O13,2.7804000000000006
mp-763637,Li4Fe2SiO7,1.8512000000000004
mp-767682,Li4Fe3(BO3)4,2.0044
mp-997554,Li4Fe3(CoO4)3,0.5225999999999997
mp-762764,Li4Fe3(NiO5)2,0.31010000000000026
mp-764551,Li4Fe3(OF3)2,3.2956
mp-1177429,Li4Fe3(SiO4)3,1.5964
mp-762290,Li4Fe3Co(PO4)4,1.5837
mp-776141,Li4Fe3Co2Sb3O16,0.2018000000000004
mp-762171,Li4Fe3Co3(SbO8)2,0.5400999999999998
mp-776860,Li4Fe3Co3(WO8)2,0.5912999999999999
mp-764207,Li4Fe3CoO8,1.7590999999999997
mp-1177485,Li4Fe3Cu(PO4)4,0.008000000000000007
mp-763924,Li4Fe3CuO8,0.051699999999999864
mp-771063,Li4Fe3Ni(PO4)4,3.044
mp-1177411,Li4Fe3Ni2Sb3O16,0.4258999999999995
mp-780836,Li4Fe3OF11,2.6304
mp-764594,Li4Fe3OF8,3.3168
mp-762712,Li4Fe3P3O12F,3.5868999999999995
mp-780175,Li4Fe3P4(HO8)2,3.8515
mp-705404,Li4Fe3P4O15,3.94
mp-1177409,Li4Fe3Sb(PO4)4,0.19769999999999927
mp-769870,Li4Fe3Sb5O16,1.1154000000000002
mp-780303,Li4Fe3SbO8,1.2768999999999997
mp-849600,Li4Fe3Sn3(SbO8)2,0.1651000000000007
mp-775074,Li4Fe3Sn3(TeO8)2,1.3026
mp-1177468,Li4Fe3TeO8,1.1878000000000002
mp-772249,Li4Fe3WO8,2.1772