task_id,pretty_formula,band_gap
mp-1200865,CuH6C2O7,0.1342
mp-1197914,CuH6C2SeCl,2.5422
mp-1202646,CuH6C2SeI,2.4995000000000003
mp-24362,CuH6CN2O3,0.5795000000000001
mp-1238512,CuH6S2(NO4)2,0.00990000000000002
mp-1192826,CuH6SO7,0.8436000000000001
mp-707509,CuH6Se2NClO6,0.12269999999999992
mp-1182659,CuH7C3SN3O4,0.013900000000000023
mp-707987,CuH8(ClO5)2,0.8254999999999999
mp-568659,CuH8C2(N6Cl)2,0.6377999999999999
mp-698414,CuH8C2NCl3,0.2036
mp-542176,CuH8C4O5,0.3773
mp-583429,CuH8C6(N3O)2,0.0004999999999999449
mp-707852,CuH8CN5Cl3,0.2587
mp-1196599,CuH8N2(OF2)2,0.7144
mp-1201234,CuH8S3O10,0.716
mp-1198838,CuH9C3N(ClO)2,0.7338
mp-738675,CuH9C4S4N,0.0063000000000000824
mp-1201220,CuH9C5NO5,0.5468
mp-706528,CuH9CSN4Cl3O,1.4082
mp-769935,CuHCO4,0.3433999999999999
mp-697072,CuHIO4,0.07810000000000006
mp-996956,CuHO2,0.5373999999999999
mp-1213674,CuHS(NO)4,0.012499999999999956
mp-1194904,CuHg(SeO3)2,0.6305000000000001
mp-571268,CuHg3As2Br3,0.09450000000000004
mp-1213415,CuHg3As2Cl3,0.22940000000000005
mp-640925,CuHgC4(SN)4,0.3338
mp-1097344,CuHgPd2,0.16380000000000014
mp-554879,CuHgSBr,0.4491999999999998
mp-23567,CuHgSCl,0.5699999999999998
mp-542426,CuHgSI,0.4445999999999999
mp-567720,CuHgSeBr,0.4629000000000001
mp-569687,CuHgSeCl,0.6294999999999997
mp-1192231,CuIO4,0.9031999999999998
mp-571184,CuMo3Br7,1.6912
mp-568397,CuMo3Cl7,1.9195
mp-29440,CuMo3I7,1.5653
mp-1198174,CuMo3O11,0.0037
mp-611706,CuMoF6,0.28669999999999995
mp-1105578,CuNCl3,0.16860000000000008
mp-510642,CuNi2(PO4)2,0.5451999999999999
mp-1227004,CuNi3(CO3)8,0.3421
mp-1178372,CuNiO2,0.0032000000000005357
mp-1191203,CuNiSbS3,0.3340000000000005
mp-997035,CuO2F,0.7835000000000001
mp-606644,CuP10,1.0585000000000004
mp-730473,CuP2(H2O3)2,0.2287
mp-24156,CuP2(HO)4,0.6392
mp-690769,CuP2H12N2(O4F)2,0.05820000000000002
mp-1203798,CuP2H18C6Cl,3.006
mp-1199239,CuP2H7C2NO6,0.2197
mp-24145,CuP2H8CN2O5,0.3761
mp-21533,CuP2PbO7,0.6361000000000003
mp-1197183,CuP3NO9,0.2559
mp-567472,CuP4I,0.8799999999999999
mp-505436,CuP4O11,0.5740000000000001
mp-1197804,CuP4S3Br,1.731
mp-554724,CuP4S3I,1.7032000000000005
mp-1196912,CuP4Se3Cl,1.5534000000000003
mp-1202691,CuP4Se3I,1.165
mp-571015,CuP4Se4I,1.6632
mp-1201409,CuP6Pd11O34,0.009299999999999642
mp-1225955,CuP7I,1.1253000000000002
mp-721471,CuPH4O5F,0.2504
mp-733866,CuPH6NO5,0.7670999999999999
mp-1201654,CuPHO4,0.5784
mp-1078469,CuPN2,1.8367000000000004
mp-1201294,CuPNO5,0.2268
mp-772255,CuPO3,1.8792
mp-1181537,CuPO5,0.010099999999999998
mp-1225675,CuPS2,0.3283000000000005
mp-1105187,CuPS3,1.2100000000000004
mp-1225697,CuPSe2,0.013499999999999623
mp-1096790,CuPbBr3,0.14250000000000007
mp-1213075,CuPdF6,0.033600000000000074
mp-28488,CuPtF6,0.0724
mp-645206,CuReO4,1.4421
mp-14116,CuRhO2,0.9581
mp-1193070,CuS2(N2O3)2,0.1091000000000002
mp-1196719,CuS2(NO7)2,0.10480000000000013
mp-653586,CuS4(N2Cl)2,0.10749999999999993
mp-557980,CuS4BrN4,0.8969
mp-1199802,CuSN4O5,0.000300000000000189
mp-1213467,CuSO7,0.0979
mp-622126,CuSb(MoO4)2,0.6344000000000003
mp-554497,CuSb2(XeF5)4,0.6642999999999999
mp-606617,CuSb2(XeF8)2,0.06940000000000035
mp-559587,CuSb2BrO3,0.7827999999999999
mp-554291,CuSb2ClO3,0.6385000000000005
mp-553890,CuSb2H12(O3F4)2,0.95
mp-773874,CuSb3(PO4)6,0.4515
mp-1196390,CuSb3XeF23,0.0884999999999998
mp-1190199,CuSb6(SO8)2,0.5674999999999999
mvc-1872,CuSbAs2O7,0.0484
mp-1041001,CuSbO4,0.3338000000000001
mp-649774,CuSbPbS3,0.7698
mp-1097593,CuSbPd2,0.15669999999999984
mp-29567,CuSe2Br,0.8465
mp-31038,CuSe2Cl,0.7894000000000001
mp-3199,CuSe2O5,0.00550000000000006
mp-28741,CuSe3Br,1.0298999999999998
mp-29450,CuSe3I,1.0589
mp-1213564,CuSeClO5,0.008400000000000019
mp-23731,CuSi(HO2)2,0.2538
mp-1181491,CuSi(O2F3)2,0.08709999999999997
mp-698318,CuSi2H18C9O2,2.955
mp-1226404,CuSiH18C7S3I,3.0263
mp-703531,CuSiH8(O2F3)2,0.9868
mp-556982,CuSiO3,0.5818
mp-1213555,CuSn(O2F3)2,0.1974
mp-758849,CuSn(PO4)2,0.19890000000000008
mp-1213671,CuSn3F6,0.2354999999999996
mp-1197282,CuSn3H27C9NCl,2.8242000000000003
mp-4701,CuSnF6,0.1778
mp-696152,CuSnH12(NO3)2,0.8126
mp-1213499,CuSnO12,0.015900000000000025
mp-31036,CuTe2Br,0.7393000000000001
mp-30971,CuTe2Cl,0.5969000000000002
mp-31037,CuTe2I,0.8199000000000001
mp-1203135,CuTe2PbO7,0.1459999999999999
mp-570909,CuTe4H12C4N,0.4093
mp-568778,CuTeBr,0.7599
mp-1181623,CuTeNO4,0.08240000000000003
mp-558696,CuTeO3,0.006000000000000227
mp-1201121,CuTePb3CO10,0.03310000000000013
mp-1213133,CuTeSBr,1.2316999999999996
mp-1213106,CuTeSCl,1.2387
mp-1213194,CuTeSeBr,1.0351000000000004
mp-1213116,CuTeSeCl,1.0314
mp-1213068,CuTeSeI,1.0355000000000003
mp-1042407,CuW2O7,0.3526000000000001
mp-23370,CuW3Br7,2.0638
mp-29557,CuW3Cl7,2.3724000000000003
mp-565766,CuWO3F2,0.7745
mp-510632,CuWO4,0.11249999999999982
mp-28714,Dy(AlCl4)3,4.2606
mp-1213554,Dy(AsO)2,0.08460000000000001
mp-3261,Dy(BO2)3,5.561
mp-769364,Dy(BiO2)3,2.0037
mp-1181480,Dy(BrO2)3,1.5607000000000002
mp-1181490,Dy(ClO2)3,0.0018999999999999853
mp-768166,Dy(ClO4)3,5.7623
mp-1225724,Dy(CuS)3,1.2969
mp-1225403,Dy(CuSe)3,0.9036999999999996
mp-1225395,Dy(CuTe)3,0.7072000000000003
mp-24074,Dy(HO)3,3.6966
mp-559637,Dy(IO3)3,3.4306
mp-1196716,Dy(NO3)3,3.324
mp-1182296,Dy(NO5)3,0.4907000000000002
mp-771106,Dy(PO3)3,5.7384
mp-1213039,Dy(ZnP)3,0.2806999999999995
mp-37310,Dy10Ti6O27,2.5756
mp-1205189,Dy11Cd45,0.10609999999999964
mp-766279,Dy11Y5O24,4.1197
mp-1226206,Dy12Ge5S28,1.0060999999999996
mp-1225718,Dy12Si5S28,1.6508000000000005
mp-1197303,Dy13Zn58,0.06990000000000007
mp-675822,Dy14(PbS8)3,2.1885000000000003
mp-675768,Dy14Ti10O41,2.3412
mp-1213120,Dy2(MoO4)3,3.5702000000000003
mp-1204635,Dy2(Ni2B)5,0.003300000000000303
mp-1213482,Dy2(SO4)3,5.8095
mp-769232,Dy2(SeO4)3,3.7761
mp-558224,Dy2(TeO3)3,3.2255
mp-510253,Dy2(WO4)3,4.0894
mp-774100,Dy29Y3O48,3.9605
mp-1206934,Dy2AgSb3,0.11019999999999984
mp-1213210,Dy2Au5F21,1.5929
mp-1200687,Dy2B3O8,0.1075999999999997
mp-16600,Dy2B4O9,5.6211
mp-20778,Dy2Be2GeO7,4.4623
mp-1213057,Dy2Be2SiO7,5.1119
mp-13038,Dy2C(NO)2,3.9789
mp-1225760,Dy2CI3,0.3607
mp-1225362,Dy2CO5,4.479
mp-16267,Dy2CdS4,1.0877
mp-570959,Dy2CdSe4,0.5865
mp-1104560,Dy2CdTe4,0.014699999999999937
mp-1213101,Dy2CoPtO6,1.7199
mp-1190177,Dy2CoTe2(SO7)2,2.9466
mp-1232352,Dy2CrFeO6,2.1786
mp-1225509,Dy2CrSbO7,1.9110000000000005
mp-557935,Dy2Cu(BO2)8,0.8659000000000003
mp-22196,Dy2Cu(GeO3)4,0.8678999999999999
mp-1213218,Dy2Cu(GeO4)2,0.5797000000000003
mp-1195739,Dy2Cu(SO6)2,0.2866000000000001
mp-1213119,Dy2Cu(SiO3)4,0.98
mp-1213479,Dy2Cu(WO4)4,0.008599999999999941
mp-771141,Dy2Cu2O5,0.07209999999999983
mp-1207340,Dy2CuSb3,0.1391
mp-1225454,Dy2FeMoO7,0.030499999999999968
mp-1225341,Dy2FeSbO7,1.6558000000000002
mp-772793,Dy2Ge2O7,3.7422
mp-28351,Dy2GeO5,3.9954
mp-850292,Dy2H16S3O20,5.1994
mp-565245,Dy2Hf2(MoO4)7,3.1912000000000003
mp-3611,Dy2Hf2O7,3.2267
mp-1198001,Dy2HfS5,1.1906
mp-1232131,Dy2MgS4,1.7607000000000004
mp-1232083,Dy2MgSe4,1.2726000000000002
mp-1213085,Dy2MgTiO6,3.2296000000000005
mp-1225644,Dy2Mn(GeO3)4,2.0877
mp-779967,Dy2Mn2O7,0.9041
mp-1225368,Dy2Mn3Sb3O14,0.8766999999999996
mp-1237349,Dy2MnCoO6,0.3833000000000002
mp-1104659,Dy2MnNiO6,1.7624999999999995
mp-1225344,Dy2MnSbO7,0.2628000000000004
mp-1203751,Dy2Mo3H2Se2O17,1.6664
mp-1213187,Dy2Mo4O15,3.3318000000000003
mp-1198422,Dy2Mo8O33,0.34640000000000004
mp-542476,Dy2MoO6,2.166
mp-1204935,Dy2Nb2S7O30,0.1547
mp-1225329,Dy2NbGaO7,1.9331
mp-771147,Dy2P4O13,5.638800000000002
mp-769222,Dy2Pb2O7,0.9474
mp-675209,Dy2PbS4,2.0230999999999995
mp-1178365,Dy2Pt2O7,1.4061000000000003
mp-8324,Dy2S2O,2.5645
mp-1213557,Dy2S3O20,0.3246
mp-12669,Dy2SO2,3.0076000000000005
mp-769138,Dy2Sb2O7,1.8993
mp-1225349,Dy2ScNbO7,2.1517000000000004
mp-7368,Dy2Se3,0.3632999999999997
mp-769284,Dy2SeO2,2.1495
mp-1194579,Dy2SeOF2,2.8557
mp-17062,Dy2Si2O7,4.6278
mp-1225372,Dy2Si9B36C,1.1689999999999996
mp-768317,Dy2SiO5,4.5469
mp-18219,Dy2SiSeO4,2.5741
mp-20845,Dy2Sn2O7,2.7123
mp-1120784,Dy2SnS3,0.9116
mp-1189757,Dy2SnS5,0.1820000000000004
mp-505682,Dy2Te,0.006800000000000139
mp-1120810,Dy2Te3Se,1.3209
mp-510342,Dy2Te4O11,3.2494
mp-555940,Dy2Te5O13,2.9867
mp-16037,Dy2TeO2,1.0886000000000005
mp-768313,Dy2TeO6,3.0066
mp-1225289,Dy2TeS2,1.9458999999999995
mp-752425,Dy2Ti2O7,2.9696
mp-770816,Dy2TiO5,3.3008
mp-642823,Dy2V2O7,1.0590000000000006
mp-1225428,Dy2VFeO6,1.3251
mp-1200746,Dy2VO5,1.7037000000000004
mp-772682,Dy2W2O9,3.1434
mp-770559,Dy2WO6,3.623
mp-1225383,Dy2YTaO7,3.4994
mp-1193407,Dy2ZnS4,2.3588
mp-1190527,Dy2ZnTe2(SO7)2,4.0113
mp-754302,Dy2Zr2O7,2.609700000000001
mp-675835,Dy2Zr8O19,2.3535000000000004
mp-1199023,Dy2ZrS5,1.2195999999999998
mp-22808,Dy3(AgSn)4,0.019599999999999614
mp-772195,Dy3Al5O12,4.5685
mp-1192418,Dy3AlNiS7,0.3022
mp-1213062,Dy3B7Mo,0.011700000000000266
mp-1191614,Dy3B7W,0.04269999999999996
mp-645246,Dy3BWO9,3.7847
mp-1191669,Dy3BeCrS7,0.6670999999999996
mp-1212952,Dy3CrS6,0.2809000000000008
mp-1189135,Dy3Cu3Sb4,0.3780999999999999
mp-558740,Dy3CuGeS7,1.8098
mp-505558,Dy3CuGeSe7,1.1132
mp-1225646,Dy3CuSe6,0.7600999999999996
mp-557998,Dy3CuSiS7,1.7895000000000003
mp-569557,Dy3CuSiSe7,1.5191999999999997
mp-561499,Dy3CuSnS7,1.4820000000000002
mp-510539,Dy3CuSnSe7,0.9903999999999996
mp-645157,Dy3Fe5O12,1.8667
mp-1213672,Dy3Ga15Ru4,0.02120000000000033
mp-15576,Dy3Ga5O12,3.3047
mp-1192184,Dy3GaFeS7,0.2875000000000005
mp-1191163,Dy3GaNiS7,0.29079999999999995
mp-31113,Dy3GaO6,3.5851999999999995
mp-1199841,Dy3InS6,1.0447999999999995
mp-1191235,Dy3MnAlS7,0.0693999999999999
mp-676951,Dy3NbO7,2.8160000000000003
mp-1189887,Dy3Os,0.0036000000000000476
mp-1105479,Dy3Pt,0.02160000000000029
mp-1105841,Dy3Ru,0.012799999999999924
mp-30157,Dy3S2Cl5,3.2556000000000003
mp-556247,Dy3S3N,1.3945000000000003
mp-1225346,Dy3SOF5,3.6127
mp-984350,Dy3Sb4Au3,0.5677000000000003
mp-768638,Dy3Sb5O12,3.1578
mp-1103799,Dy3SbO3,0.4093
mp-1212841,Dy3SbO7,2.8375
mp-1213138,Dy3Sc2Al3O12,4.341799999999999
mp-567391,Dy3Se3N,1.1709999999999998
mp-555217,Dy3Se4O12F,3.7411
mp-560593,Dy3Si2Cl5O6,4.75
mp-16164,Dy3Si3O10F,5.1089
mp-755652,Dy3TaO7,3.4083
mp-1192365,Dy3Te3N,1.1106000000000007
mp-752458,Dy3Y5O12,4.0051000000000005
mp-18108,Dy4(B2O5)3,5.4521
mp-10771,Dy4(SiS4)3,2.3623000000000003
mp-1212993,Dy4Al2O9,4.1536
mp-1196433,Dy4B4O11F2,5.493099999999999
mp-1201047,Dy4BClO7,4.752
mp-1212922,Dy4CdNi,0.020500000000000185
mp-1225330,Dy4CdS7,1.2542
mp-1225331,Dy4CdSe7,0.9026999999999998
mp-1213425,Dy4InIr,0.04269999999999996
mp-1225333,Dy4MgS7,1.1614
mp-1225337,Dy4MnS7,0.5289999999999999
mp-1225351,Dy4MnSe7,0.5857999999999999
mp-16587,Dy4Si2S3O7,2.6106
mp-1201962,Dy4Te3N2,1.5438000000000005
mp-1095296,Dy4Te3S4,1.8395
mp-1194035,Dy4Zn5Ge6,0.028599999999999962
mp-1201480,Dy5(CoSn3)6,0.03550000000000075
mp-1105361,Dy5(MoO6)2,0.7962000000000002
mp-35512,Dy5AgS8,1.731800000000001
mp-757587,Dy5Bi11O24,2.6562
mp-567407,Dy5C2Br9,0.7994000000000001
mp-570607,Dy5C2I9,0.6639999999999997
mp-1213372,Dy5CoBi2,0.02510000000000012
mp-1225574,Dy5Si2BO13,4.5382
mp-1225400,Dy6Al2SiS14,2.5448000000000004
mp-1232410,Dy6Al43Mo4,0.03869999999999951
mp-1196453,Dy6H40N8O49,2.926
mp-1225380,Dy6Mg(GeS7)2,2.2417
mp-1225409,Dy6Mn(SiS7)2,0.9899999999999992
mp-1213432,Dy6N8O33,0.01709999999999989
mp-1213257,Dy6Nb4Al43,0.035299999999999436
mp-32633,Dy6Se11,0.5317000000000007
mp-1213274,Dy6Ta4Al43,0.03690000000000016
mp-676306,Dy7(CuTe4)3,0.32319999999999993
mp-1213462,Dy7BP2O17,4.8259
mp-1201241,Dy7C2I12O,0.21259999999999968
mp-1191058,Dy8Ga3Co,0.17759999999999998
mp-1192724,Dy8In3Co,0.10770000000000036
mp-1226139,Dy9Al5S21,2.4336
mp-1226050,Dy9Al5Se21,1.5918000000000003
mp-1225776,Dy9B5S21,1.46
mp-1212988,DyAg(WO4)2,3.1573
mp-866657,DyAgH2C2SO9,2.9366
mp-1200233,DyAgS2,1.6764
mp-1181462,DyAgSe2,1.3001
mp-4024,DyAgTe2,0.9018000000000006
mp-1212827,DyAl3(BO3)4,5.5835
mp-1213060,DyAlGe2O7,3.3627
mp-756630,DyAlO3,5.723000000000001
mp-5632,DyAsO4,3.6275
mp-1102068,DyAsPd,0.03169999999999984
mp-1102052,DyAsS,0.1700999999999997
mp-1102952,DyAsSe,0.4516
mp-864993,DyB4Mo,0.2845000000000004
mp-9936,DyBC,0.1804000000000001
mp-12315,DyBO3,5.3594
mp-1212971,DyBeNF6,0.0907
mp-552992,DyBi2BrO4,1.3290000000000002
mp-552008,DyBi2ClO4,1.3622
mp-546266,DyBi2IO4,1.3667999999999996
mp-864982,DyBr3,3.0029
mp-1200026,DyCO4,0.07899999999999996
mp-28448,DyCl3,3.8943
mp-1178362,DyClO,4.5459000000000005
mp-24848,DyCoO3,0.038000000000000256
mp-1213562,DyCrC6(N3O2)2,1.7197000000000002
mp-1213026,DyCrGeO5,2.6647000000000003
mp-19381,DyCrO3,2.4922
mp-18754,DyCrO4,0.2492000000000001
mp-1225651,DyCrS3,0.2070999999999996
mp-560432,DyCu(MoO4)2,1.9663
mp-505168,DyCu(WO4)2,1.5189000000000004
mp-1225327,DyCuPbS3,1.6400999999999994
mp-601257,DyCuPbSe3,1.2113000000000005
mp-554120,DyCuS2,1.6324
mp-675349,DyCuSe2,1.0667999999999995
mp-9304,DyCuSeO,1.1804000000000006
mp-945779,DyCuTe2,0.12340000000000018
mp-554882,DyCuTe2ClO6,0.3946000000000001
mp-772188,DyErO3,3.0896
mp-1212889,DyF3,7.8626
mp-1199045,DyFe3(BO3)4,2.3096
mp-1226261,DyFe5Bi4O15,1.7833000000000006
mp-622558,DyFeGe2O7,2.5863000000000005
mp-745208,DyFeH8C6(N3O2)2,2.6507
mp-24953,DyFeO3,1.5602999999999998
mp-1212835,DyGa3(BO3)4,4.390700000000002
mp-1213126,DyGaGe2O7,2.9567999999999994
mp-769015,DyGaO3,2.8659
mp-1225852,DyGaSe3,0.015800000000000036
mp-20739,DyGePt,0.05039999999999978
mp-1213621,DyH13C8N6O13,3.0549
mp-1198602,DyH2C2SNO9,0.4641
mp-1191571,DyH3,0.3820000000000001
mp-24831,DyH4I3O11,3.7185
mp-605302,DyH6C6Cl3(O3F2)3,4.2831
mp-698454,DyH9C5(NO4)2,4.5207
mp-755659,DyHO2,4.5215
mp-1207186,DyHSe,1.5366999999999995
mp-768145,DyHoO3,3.0512
mp-865005,DyI3,2.1725000000000003
mp-1206888,DyI6,0.03779999999999984
mp-1080384,DyInCu4,0.0439999999999996
mp-768149,DyInO3,1.9871
mp-756469,DyLuO3,4.634
mp-1212987,DyMg(BO2)5,6.0883
mp-1184537,DyMg149,0.2636000000000003
mp-1232163,DyMgS3,0.1958000000000002
mp-25040,DyMn2O5,1.0799000000000003
mp-1213015,DyMnCrO5,0.06320000000000013
mp-1212984,DyMnFeO5,1.0612
mp-1192462,DyMoBrO4,1.9143
mp-565666,DyMoClO4,2.7273
mp-686909,DyMoO4F,3.7529
mp-1213168,DyMoO5,2.39
mp-1193457,DyN3O10,0.2452000000000001
mp-1213404,DyN3O14,0.012299999999999978
mp-556639,DyNbO4,3.4638
mp-30452,DyNiBi,0.2135999999999996
mp-4510,DyNiSb,0.3132999999999999
mp-1072208,DyOF,5.020200000000001
mp-1226255,DyP2(HO2)5,1.8609
mp-707992,DyP2H9O10,2.2486
mp-9850,DyP5,0.09049999999999958
mp-554583,DyP5O14,5.2464
mp-1212811,DyPPd,0.03329999999999966
mp-1192185,DyPS,0.3552
mp-5241,DyPS4,2.1596999999999995
mp-1225510,DyPaO4,2.4111
mp-17160,DyPtF7,2.3154000000000003
mp-1201741,DyRe3O16,0.3274000000000001
mp-1212884,DyRhO3,0.8176000000000005
mp-28928,DySBr,2.8776
mp-561307,DySCl,2.7617000000000003
mp-28929,DySI,2.7811
mp-566757,DySbMo2O9,3.1968
mp-1236840,DySbO4,2.3313
mp-16327,DySbPt,0.4923000000000002
mp-1225550,DySbTe3,0.8720000000000008
mp-31120,DyScO3,4.4572
mp-1184176,DyScS3,1.8075000000000008
mp-558257,DySeClO3,4.3668999999999984
mp-1206751,DySeI,0.0658000000000003
mp-769393,DySeO3,1.7860999999999998
mp-1212958,DyTa5Ag2O15,2.5972
mp-15492,DyTa7O19,3.2223
mp-7703,DyTaO4,4.0605
mp-1212803,DyTeAs,0.3815
mp-556108,DyTiClO3,3.1638
mp-1213009,DyTl(MoO4)2,3.2912
mp-1105239,DyTl(PSe3)2,1.5485000000000002
mp-1212931,DyTl(WO4)2,3.0488
mp-1225567,DyTl2InS4,1.1665
mp-755183,DyTlO2,1.4823999999999995
mp-31166,DyTlS2,1.5297
mp-568062,DyTlSe2,2.1858000000000004
mp-1007908,DyTlTe2,1.5578000000000003
mp-752435,DyTmO3,4.5265
mp-25144,DyVO3,1.5488
mp-18784,DyVO4,2.9764
mp-1192384,DyWBrO4,2.7063
mp-770600,DyWO4,1.9468
mp-1225109,DyY(FeO3)2,1.5775000000000006
mp-757197,DyY3O6,4.0215
mp-766292,DyY7O12,4.0298
mp-1225181,DyYMn2O6,0.028500000000000195
mp-768333,DyYO3,3.028
mp-1225053,DyZnCuAs2,0.10659999999999936
mp-549728,DyZnPO,1.2613999999999992
mp-1213567,DyZr6(PO4)9,3.6799
mp-686636,DyZr9Si9PO40,3.9377
mp-1104636,Er(AlC)3,0.02600000000000069
mp-680718,Er(BO2)3,5.668000000000001
mp-754989,Er(BiO2)3,2.0482
mp-1181421,Er(ClO2)3,2.4278
mp-29888,Er(ClO4)3,5.0118
mp-1225120,Er(CuS)3,1.2838000000000005
mp-640885,Er(CuTe)3,0.3838999999999997
mp-24645,Er(HO)3,3.7167
mp-23552,Er(IO3)3,3.4610000000000003
mp-1197536,Er(NO3)3,3.2696
mp-510482,Er(Ni2As)2,0.01309999999999967
mp-1189979,Er(PO2)3,2.7109
mp-27939,Er(PO3)3,5.7482000000000015
mp-1213544,Er(PO5)2,0.0153
mp-772838,Er(ReO4)3,3.8063
mp-1212805,Er(ZnP)3,0.34280000000000044
mp-37727,Er10Ti6O27,1.7209999999999999
mp-578771,Er10W2O21,3.0317
mp-1204723,Er11Cd45,0.06579999999999986
mp-1203997,Er13Zn58,0.027499999999999858
mp-685945,Er14Ti10O41,1.1144999999999996
mp-686077,Er18Ti14O55,2.3688
mp-9841,Er2(SO4)3,5.8883
mp-31352,Er2(SeO3)3,3.9485
mp-1237904,Er2(SeO4)3,2.6314
mp-773715,Er2(WO4)3,4.7386
mp-1228844,Er20Cu6(Pb3S14)3,1.481
mp-1206696,Er2AgSb3,0.1065999999999998
mp-541347,Er2Au5F21,1.7014999999999998
mp-556986,Er2B2Cl2O5,5.0806
mp-756914,Er2B4O9,5.6886
mp-14420,Er2Be2GeO7,4.7188
mp-1212878,Er2Be2SiO7,5.0968
mp-772991,Er2Bi2O7,0.3730000000000002
mp-6574,Er2C(NO)2,4.0097000000000005
mp-3041,Er2CdS4,1.1467
mp-532294,Er2CdSe4,0.5857999999999999
mp-1225159,Er2CrSbO7,1.986
mp-17699,Er2Cu(B2O5)2,0.6619000000000002
mp-16057,Er2Cu(GeO3)4,0.8697999999999999
mp-21160,Er2Cu2O5,0.31300000000000017
mp-1206361,Er2CuAs3,0.14910000000000026
mp-1207353,Er2CuSb3,0.14439999999999964
mp-1225637,Er2FeSbO7,1.5271
mp-13643,Er2Ge2O7,3.7279
mp-1225777,Er2Ge2S7,0.4794999999999998
mp-1188138,Er2Ge5Ru3,0.07800000000000029
mp-774547,Er2GeO5,3.8644
mp-766250,Er2H16S3O20,5.4121000000000015
mp-557890,Er2Hf2O7,3.0001
mp-1200853,Er2HfS5,1.2506000000000004
mp-1232129,Er2MgS4,1.8482
mp-1103561,Er2MgSe4,1.368
mp-1212787,Er2MgTiO6,3.2333000000000003
mp-1225740,Er2Mn3Sb3O14,1.1838000000000006
mp-1225595,Er2MnS4,0.1275000000000004
mp-1203166,Er2Mo3H2Se2O17,1.6349
mp-1212977,Er2Mo4O15,3.3264
mp-510301,Er2MoO6,2.1979
mp-1202070,Er2Nb2S7O30,0.15430000000000002
mp-772958,Er2P4O13,5.4556
mp-755723,Er2Pb2O7,0.9168999999999996
mp-1225956,Er2PbS4,2.2202000000000006
mp-569786,Er2PbSe4,1.8036000000000003
mp-756440,Er2Pt2O7,1.5404999999999998
mp-8762,Er2S2O,2.6472
mp-2234,Er2S3,1.4611999999999998
mp-1197221,Er2S3O20,0.2861
mp-12671,Er2SO2,3.0733
mp-772137,Er2Sb2O7,1.7512
mp-13975,Er2SeO2,2.1741000000000006
mp-7064,Er2Si2O7,4.7942
mp-1226117,Er2Si2PbO8,3.3964
mp-1212966,Er2Si4CN6,3.2745999999999995
mp-555983,Er2SiO5,4.754099999999998
mp-555990,Er2SiSO4,2.8061000000000007
mp-17633,Er2SiSeO4,2.5551000000000004
mp-3688,Er2Sn2O7,2.673
mp-581795,Er2Te4O11,3.2240999999999995
mp-559304,Er2Te5O13,3.008
mp-1178355,Er2TeO2,0.9477000000000002
mp-774557,Er2TeO6,3.0127
mp-1225541,Er2TeS2,1.8873
mp-1225774,Er2ThOF10,0.00040000000000006697
mp-1225949,Er2Ti12(CuO4)9,0.3158000000000003
mp-5889,Er2Ti2O7,2.7016
mp-774567,Er2TiO5,3.2962
mp-1192137,Er2TlCu3S5,1.5457999999999998
mp-1238453,Er2V10O53,0.010399999999999965
mp-1225732,Er2VFeO6,0.8577000000000004
mp-567056,Er2WO6,3.202500000000001
mp-1192811,Er2ZnS4,2.3883
mp-1178353,Er2Zr2O7,4.3508
mp-675556,Er2Zr8O19,2.4171
mp-1197488,Er2ZrS5,1.2809999999999997
mp-1213214,Er3Al3Cr2O12,3.3754
mp-3384,Er3Al5O12,4.758
mp-560278,Er3B5O12,5.3497
mp-1191731,Er3B7W,0.05200000000000049
mp-1192242,Er3BeCrS7,0.5696000000000003
mp-18420,Er3CrS6,0.23270000000000035
mp-1105955,Er3Cu3Sb4,0.4072999999999993
mp-555081,Er3CuGeS7,1.7245999999999997
mp-558980,Er3CuSiS7,1.8759999999999997
mp-566912,Er3Fe5O12,1.6287999999999996
mp-1213476,Er3Ga15Ru4,0.00509999999999966
mp-12236,Er3Ga5O12,3.3298000000000005
mp-1191780,Er3GaNiS7,0.2820999999999998
mp-31115,Er3GaO6,3.5359
mp-7290,Er3GaS6,2.1052
mp-540546,Er3Ni2,0.003599999999999603
mp-560114,Er3O2F5,5.6188
mp-1212915,Er3OF10,0.040899999999999936
mp-34580,Er3Pb4F17,5.0743
mp-1225708,Er3S2OF3,1.7392000000000003
mp-1225522,Er3S3OF,0.4757000000000002
mp-1105695,Er3Sb4Au3,0.6239999999999997
mp-772087,Er3Sb5O12,3.1169
mp-1212828,Er3SbO7,2.8231999999999995
mp-1213255,Er3Sc2Al3O12,4.4631
mp-1225623,Er3ScS6,1.0189
mp-542038,Er3Si3O10F,5.097099999999998
mp-555942,Er3SiSe2O10F,4.0849
mp-756277,Er3TaO7,3.6189
mp-1189719,Er3Tl2Cu5S8,1.4247999999999994
mp-772497,Er4(B2O5)3,5.580500000000002
mp-1204549,Er4BClO7,4.7497
mp-1212949,Er4CdPt,0.01990000000000025
mp-1225577,Er4CdS7,1.2697000000000005
mp-1225645,Er4FeS7,0.0508999999999995
mp-1225593,Er4MgS7,1.1777000000000002
mp-1225601,Er4MnS7,0.6382999999999996
mp-554296,Er4Mo4O11,0.4500000000000002