task_id,pretty_formula,band_gap
mp-27608,Be4TeO7,1.2806999999999995
mp-1072399,Be5Pt,0.09529999999999994
mp-1227528,Be6Al4Si12O37,0.8690000000000002
mp-1229295,Be8P8H34N8O33,3.3677
mp-15919,BeAgPO4,2.6504000000000003
mp-3081,BeAl2O4,6.118099999999999
mp-560974,BeAl6O10,5.4595
mp-23719,BeAlH5,3.204
mp-759686,BeAlSiHO5,5.360499999999999
mp-1196267,BeAlSiO5,0.4003999999999999
mp-1194099,BeAsO5,0.027700000000000058
mp-1095722,BeBIr2,0.04760000000000009
mp-30139,BeBr2,5.1775
mp-1001023,BeC2,1.6671
mp-1189451,BeCN2,5.4990999999999985
mp-1093854,BeCdPt2,0.1200000000000001
mp-23267,BeCl2,6.3324
mp-1096558,BeCo2B,0.3542000000000001
mp-1193887,BeCr2O4,2.6307
mp-770887,BeCrO4,2.4299
mp-631505,BeCuBr,0.07699999999999996
mp-561543,BeF2,7.9632
mp-1096444,BeFeCo2,0.1636000000000002
mp-1009088,BeGeAs2,0.6403000000000003
mp-1019550,BeGeN2,3.3941
mp-1013527,BeGeP2,0.8923000000000005
mp-1096134,BeGePt2,0.003300000000000303
mp-1095723,BeGeRh2,0.1732999999999998
mp-1204117,BeH12C4(SBr)2,4.4285999999999985
mp-723109,BeH14(I2O9)2,3.3177000000000003
mp-768203,BeH2,5.3260000000000005
mp-1199791,BeH24C8S4(ClO2)2,3.6839999999999997
mp-757836,BeH2SeO4,4.753
mp-1201870,BeH48C20I6(N2O)4,2.0476
mp-696961,BeH4NF3,6.0878
mp-707175,BeH6(NF2)2,7.2018
mp-23776,BeH8(ClO2)2,5.341
mp-734194,BeH8(IO5)2,3.8899
mp-24614,BeH8(NF2)2,6.648
mp-706913,BeH8(NO5)2,3.4834
mp-23996,BeH8SO8,5.4388
mp-708961,BeH8SeO8,3.9964
mp-570886,BeI2,4.0676999999999985
mp-1097570,BeMoRu2,0.13050000000000006
mp-1214301,BeNF3,2.8331
mp-27148,BeP2,0.8314000000000004
mp-695815,BeP2(HO)4,5.9704
mp-697592,BePH3O5,5.2
mp-24473,BePH4NO4,5.082699999999999
mp-1097675,BePRu2,0.3181000000000003
mp-1182129,BePbF4,5.3732
mp-5046,BeSO4,6.9502
mp-1214285,BeSi(AgO2)2,0.7848999999999999
mp-1009087,BeSiAs2,1.0215999999999994
mp-7913,BeSiN2,5.1459
mp-1183445,BeSiO3,0.3604000000000003
mp-1009085,BeSiP2,1.1498
mp-1009084,BeSnAs2,0.6936999999999998
mp-1009086,BeSnP2,0.9218000000000002
mp-3733,BeTl2F4,4.4409
mp-1227367,BeZn3O4,1.541
mp-550433,BeZnO2,2.6554
mp-1096662,BeZnPt2,0.15029999999999966
mp-1227316,BeZnS2,3.0424000000000007
mp-556548,Bi(BO2)3,3.9576
mp-1182384,Bi(CO3)3,0.5489999999999999
mp-31259,Bi(IO3)3,2.8849
mp-679989,Bi(Mo2Cl5)3,2.1493
mp-27135,Bi(PO3)3,4.5202
mp-1227403,Bi(SbTe2)3,0.10269999999999957
mp-29127,Bi(TeBr2)2,1.0593
mp-569822,Bi(W2Cl5)3,2.0045
mp-1229330,Bi(W3O10)6,0.08309999999999995
mp-1198859,Bi(WBr3)3,1.9821
mp-566792,Bi10(MoO8)3,2.7955
mp-758225,Bi10(Pb2O7)3,2.3528999999999995
mp-1227641,Bi10Te2Br4O17,0.9417000000000008
mp-1227670,Bi10Te2I4O17,1.4151000000000007
mp-1228808,Bi11(Se4Cl3)3,1.1265999999999998
mp-1227872,Bi12Pb2Cl6O17,1.0290999999999997
mp-1214432,Bi12Pb4O21,0.12019999999999965
mp-757785,Bi12PbO19,2.0969
mp-667342,Bi12PbO20,1.6818999999999995
mp-582988,Bi12PtCl12,0.8982000000000001
mp-1214239,Bi12RuO20,0.7144000000000004
mp-1214312,Bi12SbO20,0.2972999999999999
mp-1228534,Bi13Mo6(AsO14)3,2.5529999999999995
mp-32597,Bi13O20,0.3461999999999996
mp-1228274,Bi13Pb3Cl7O19,0.6150000000000002
mp-1194687,Bi13Pt3I7,0.07069999999999954
mp-1197854,Bi14Mo5O36,2.6700000000000004
mp-691119,Bi14MoO24,2.6056
mp-1229189,Bi14Pb4Cl8O21,0.5838999999999999
mp-542522,Bi14PdBr16,1.1683
mp-759924,Bi14SO24,2.6584000000000003
mp-557619,Bi14Te13S8,0.5462999999999996
mp-705713,Bi14WO24,2.5441000000000003
mp-685318,Bi15AsO25,2.3058
mp-685353,Bi15PO25,2.3087
mp-685341,Bi16Ru16O55,0.05799999999999982
mp-1178501,Bi17(WO11)3,1.2760000000000007
mp-1214947,Bi17As5Pb5O43,2.483
mp-680322,Bi17P5Pb5O43,2.4694
mp-761532,Bi17W3O34,2.0217
mp-759031,Bi19(O9F)3,2.0105000000000004
mp-1228012,Bi19(S9Br)3,1.3471000000000002
mp-1227984,Bi19(S9I)3,1.3338
mp-1192736,Bi2(Br3N)3,0.13880000000000026
mp-32039,Bi2(MoO4)3,2.6389000000000005
mp-1194053,Bi2(NCl3)3,0.16920000000000002
mp-26074,Bi2(PO4)3,0.004800000000000026
mp-28975,Bi2(PSe3)3,1.3081
mp-1214399,Bi2(Pb2S3)3,1.0987999999999998
mp-629690,Bi2(PbS2)3,0.5274999999999999
mp-1200203,Bi2(S2O7)3,4.0093
mp-760109,Bi2(SO4)3,4.2334000000000005
mp-29833,Bi2(SeO3)3,3.3927
mp-568819,Bi20(PtBr12)3,1.2284000000000002
mp-1197111,Bi20(PtI12)3,1.1327000000000005
mp-775842,Bi24B2O39,2.0629
mp-766249,Bi24Br10O31,1.4649000000000003
mp-560085,Bi24Cl10O31,2.1162
mp-680053,Bi24Ru3Br20,0.7997000000000001
mp-759766,Bi25BO39,1.8876
mp-766354,Bi25O38,0.4415000000000005
mp-1195168,Bi26Mo10O69,2.0054000000000003
mp-698611,Bi28Mo2O47,0.9457000000000004
mp-557090,Bi2Au5F21,1.4016
mp-756526,Bi2B2O7,0.2197
mp-1200581,Bi2B3HO8,3.2238
mp-1198385,Bi2B8O15,4.1451
mp-1227332,Bi2BrClO2,2.3945
mp-556210,Bi2CO5,2.2747
mp-1016214,Bi2H18C3(IN)9,2.8456
mp-1227605,Bi2IBr,0.9129
mp-580127,Bi2Mo2O9,2.8031
mp-25708,Bi2MoO6,2.1293
mp-1227833,Bi2NO6,0.24290000000000006
mp-753309,Bi2OF4,3.9154
mp-28541,Bi2P4O13,4.5172
mp-1194903,Bi2PO6,0.1267999999999998
mp-680181,Bi2Pb2S5,0.7227999999999994
mp-570930,Bi2Pb2Se5,0.4275000000000002
mp-675831,Bi2Pb3F12,4.4481
mp-1229287,Bi2PbF8,3.8231
mp-641924,Bi2PbS4,1.0821000000000005
mp-675543,Bi2PbSe4,0.4493000000000005
mp-1201497,Bi2Pd(SeO3)4,1.7515
mp-1227497,Bi2Pd3PtO8,0.028899999999999263
mp-29259,Bi2PdO4,0.12929999999999975
mp-23341,Bi2Pt2O7,0.7881
mp-23445,Bi2Ru2O7,0.037199999999999456
mp-652711,Bi2Ru3(CO)9,2.1011
mp-1078366,Bi2S2O,1.0006999999999993
mp-1197960,Bi2S2O9,3.6198
mp-27891,Bi2SO2,0.8247
mp-1227440,Bi2Sb2(TeSe)3,0.3218000000000005
mp-1227407,Bi2Sb2Te3,0.7423000000000002
mp-29843,Bi2Se2Cl7,1.3983000000000003
mp-1227504,Bi2Se2S,1.1937000000000002
mp-1193554,Bi2Se3O10,3.2088
mp-505564,Bi2Se4Cl7,1.0179
mp-1200639,Bi2Se5Cl7,1.4255
mp-552098,Bi2SeO2,0.3719000000000001
mp-29839,Bi2SeO5,2.8422
mp-754798,Bi2SeO6,0.6426999999999996
mp-667426,Bi2Te2O7,2.5594
mp-27910,Bi2Te2S,0.4367999999999999
mp-1192658,Bi2Te2SeO10,3.1261
mp-624387,Bi2Te2W3O16,3.0739
mp-566831,Bi2Te2WO10,2.9479
mp-29991,Bi2Te4Cl7,1.3330000000000002
mp-28990,Bi2Te4O11,2.7871
mp-676250,Bi2Te4Pb,0.4903000000000004
mp-569044,Bi2Te5Pb2,0.18550000000000025
mp-30097,Bi2Te7Cl8,0.7624999999999997
mp-23435,Bi2TeI,0.005100000000000549
mp-1194678,Bi2TeIClO8,2.7695000000000003
mp-755419,Bi2TeO2,0.5792000000000002
mp-23334,Bi2TeO5,2.4243
mp-27251,Bi2TeO6,1.4566999999999997
mp-1227356,Bi2TeSe2,0.4310000000000001
mp-505612,Bi2W2O9,2.3424
mp-705040,Bi2W3(CO)15,2.0048
mp-25177,Bi2WO6,1.9045
mp-35397,Bi2WO8,0.22949999999999984
mp-1193877,Bi3(TeCl5)2,1.2779
mp-642320,Bi32P10Pb3O76,2.2872000000000003
mp-23549,Bi3B5O12,3.283
mp-768969,Bi3B7O12,0.4014999999999995
mp-769033,Bi3BO6,2.1160000000000005
mp-866311,Bi3BrO4,0.9143
mp-29558,Bi3ClO4,2.3000000000000003
mp-772910,Bi3IO4,2.3631
mp-28946,Bi3NF6,2.7710000000000004
mp-759405,Bi3O2F5,3.285
mp-757162,Bi3O4F,2.0043
mp-753707,Bi3O5,0.1355000000000004
mp-1227518,Bi3P3O14,0.5714999999999999
mp-775485,Bi3PO7,2.3797
mp-1227592,Bi3PbWClO8,1.0690999999999995
mp-1227319,Bi3Sb,0.24190000000000025
mp-1227520,Bi3Sb(WO6)2,1.3747000000000007
mp-1227674,Bi3Sb5Pb4O21,1.2517999999999994
mp-30304,Bi3SbO7,2.1625
mp-1048225,Bi3Se2ClO8,0.7314999999999999
mp-542615,Bi3Se4,0.08789999999999942
mp-29857,Bi3Se4Br,1.0642
mp-1103410,Bi3Te2S,0.09879999999999978
mp-1191023,Bi3Te4(ClO2)5,2.416300000000001
mp-768923,Bi4(B2O5)3,3.3396
mp-1227512,Bi4(SeS)3,1.2567000000000004
mp-1227434,Bi4(TeS)3,0.5248999999999997
mp-1227439,Bi4(TeSe)3,0.3218999999999994
mp-559422,Bi4Au2O9,0.8623000000000003
mp-23356,Bi4B2O9,2.8354
mp-1196273,Bi4BPO10,2.8285
mp-23544,Bi4Br2O5,2.5121
mp-651836,Bi4Cl2O5,2.3115
mp-30130,Bi4I2O5,2.2374
mp-1227536,Bi4I3Br,1.1219
mp-1227510,Bi4IBr3,1.0550000000000002
mp-753832,Bi4O3F7,0.2568000000000001
mp-684589,Bi4O5,0.5514999999999999
mp-761704,Bi4O5F2,2.5409999999999995
mp-30303,Bi4O7,0.904
mp-1190436,Bi4Pb7Se13,0.9377000000000004
mp-1227567,Bi4PbS7,1.2921000000000005
mp-541772,Bi4RuBr2,0.5303999999999998
mp-541771,Bi4RuI2,0.4518999999999998
mp-1106129,Bi4Te2Br2O9,1.8922
mp-23005,Bi4Te7Pb,0.4221000000000004
mp-1228070,Bi5(PO5)3,3.2202
mp-675345,Bi5(S2Cl)3,1.4486999999999997
mp-1046291,Bi5(TeO6)3,0.24359999999999984
mp-769030,Bi5BO10,0.01890000000000036
mp-558302,Bi5BrO7,2.8080000000000003
mp-554445,Bi5IO7,2.7325000000000004
mp-31289,Bi5NO10,2.6161
mp-760230,Bi5O4F7,3.0184
mp-760319,Bi5O7F,2.5466
mp-1214374,Bi5P3O12F,0.08919999999999995
mp-556278,Bi6As9Se4S10(O4F13)5,2.0126
mp-768871,Bi6B10O21,1.1879999999999995
mp-27709,Bi6Br7,1.4121
mp-554249,Bi6Cl3O7F,2.9939999999999998
mp-582968,Bi6Cl7,1.6159999999999997
mp-1204598,Bi6Mo2O15,2.6385
mp-760370,Bi6O5F8,2.9856000000000003
mp-505697,Bi6P4PbO20,3.3286
mp-583499,Bi6PtBr10,1.4291000000000005
mp-570417,Bi6PtCl10,1.5756
mp-559631,Bi6Rh12O29,0.03680000000000039
mp-1197501,Bi6Se3(BrO7)2,3.2058
mp-1106025,Bi6Te10Pb,0.3192000000000004
mp-691131,Bi6W4O21,2.4698
mp-759798,Bi7(O2F3)3,2.9241000000000006
mp-676611,Bi7(S3Cl)3,0.9489
mp-579370,Bi7Mo2(AsO8)3,2.5321
mp-1190898,Bi7O5F11,3.9034
mp-29516,Bi7RhBr8,1.0126000000000002
mp-1202541,Bi8(MoO7)3,2.5143
mp-676668,Bi8(P2O9)3,0.8863999999999996
mp-570053,Bi8AsAuCl9,1.3163
mp-573727,Bi8SbAuBr9,1.1646
mp-1190284,Bi8Se9,0.2393000000000001
mp-1214397,Bi8Te7,0.1448999999999998
mp-580062,Bi8Te9,0.07500000000000018
mp-684015,Bi9AuBr9,1.0151999999999997
mp-680182,Bi9Ir2I3,0.5545
mp-680173,Bi9Rh2Br3,0.5414000000000003
mp-541979,Bi9Rh2I3,0.5161000000000007
mp-1042385,BiAs2O7,0.02679999999999999
mp-27911,BiAsO4,3.1586000000000003
mvc-5296,BiAsO5,0.04559999999999997
mp-554493,BiAsPbO5,2.2678
mp-541774,BiAuBr6,1.1255
mp-567414,BiAuCl6,1.6272
mp-997082,BiAuO2,1.0724999999999998
mp-1006880,BiB,0.07979999999999965
mp-1194824,BiB12H11O3,1.9772
mp-558753,BiB2O4F,4.1885
mp-1202291,BiB4(HO3)3,4.2409
mp-1191193,BiB5,0.3206000000000002
mp-31250,BiBO3,3.0022
mp-1147533,BiBOF4,3.2430000000000003
mp-556601,BiBPbO4,2.8760000000000003
mp-568758,BiBr,1.0369000000000002
mp-23072,BiBrO,2.2701
mp-1229017,BiC3O10,0.385
mp-1200048,BiC3S3(NO)9,0.131
mp-1191992,BiC4S2Cl3O2,1.4777
mp-1182466,BiC8N4Cl7,0.7654000000000001
mp-1178485,BiCO3,1.5052000000000003
mp-22908,BiCl3,3.3547
mp-28194,BiClF8,2.0644
mp-22939,BiClO,2.5584
mp-23237,BiF3,4.6808
mvc-15980,BiF4,0.9269
mp-27743,BiF5,1.8138
mp-1199579,BiH14C4S8N5O,2.8369999999999997
mp-1198262,BiH16C4N2Cl5,3.9912
mp-1199850,BiH18C3S3(O2F)9,5.607900000000001
mp-601924,BiH24C6(I2N)3,2.7823
mp-1200655,BiH25C8(SO2)6,3.9115
mp-707319,BiH3Ru3(CO)9,2.2639
mp-568388,BiI,0.8279000000000001
mp-1194377,BiI3O11,0.09029999999999982
mp-950217,BiI4,0.4682000000000001
mp-1214795,BiI5,0.0464
mp-22987,BiIO,1.4833000000000005
mp-1191266,BiIO4,2.3974
mp-647708,BiIr3(CO)9,2.5458
mp-1103228,BiIrSe,0.5951999999999993
mp-30012,BiKrF7,2.3578
mvc-13729,BiN,0.8056999999999999
mp-1203637,BiN3O14,0.2258
mp-1182025,BiNF4,2.7735000000000003
mp-557993,BiO2,1.1596000000000002
mvc-11360,BiOF,2.9442
mp-753455,BiOF3,1.6746
mp-616249,BiOs2(CO)6,2.1407
mp-1237295,BiOs3(CO)9,0.13219999999999998
mp-1103374,BiOsSe,0.6552999999999995
mp-581609,BiP(PbO2)4,2.5484
mp-1227709,BiP3(PbO4)3,3.6975
mp-1193044,BiP3NO10,0.2567999999999997
mp-559583,BiP3Pb4O13,3.2834
mp-24348,BiP4HO12,4.9882
mp-1214465,BiP5O14,5.1226
mp-556878,BiPPbO5,3.3519000000000005
mp-27133,BiPS4,1.4838999999999998
mp-1227492,BiPb2F7,2.6367000000000003
mp-1227444,BiPbBrO2,1.7806999999999995
mp-23084,BiPbClO2,2.068
mp-35795,BiPbF5,4.2970000000000015
mp-1227389,BiPbIO2,1.7180000000000002
mp-1227424,BiPbO2F,2.1565
mp-573119,BiRhO3,0.4075999999999995
mp-1101765,BiRhSe,0.3749000000000002
mp-652854,BiRu2(CO)6,1.1317
mp-1214383,BiRu3(CO)9,0.3337
mp-1204558,BiRu5(CO)18,0.4695
mp-971673,BiS2,1.0690999999999995
mp-557484,BiS4N3Cl4,2.0457
mp-1227290,BiSb,0.15910000000000046
mp-1237522,BiSb3(PO4)6,2.2632000000000003
mp-1227565,BiSb3F20,2.1371
mp-755382,BiSbO3,2.1015999999999995
mp-23018,BiSbO4,2.4146
mp-1043651,BiSbO5,0.7281000000000001
mp-1227486,BiSbS3,1.3443999999999994
mp-1227508,BiSbSe3,1.0093999999999994
mp-1227463,BiSbTe2,0.4798
mp-1227340,BiSbTe3,0.2035
mp-1227556,BiSbWO6,1.2191
mp-1095302,BiSe2,0.8895999999999997
mp-610491,BiSeCl,1.8404000000000005
mp-556378,BiSeClO3,3.5228
mp-33723,BiTeBr,1.2233
mp-28944,BiTeCl,1.5135
mp-559332,BiTeIO3,2.3329
mp-1227372,BiTeIr,0.5087999999999999
mp-863374,BiTeO4,2.2025999999999994
mp-1043603,BiTeO5,0.16600000000000004
mp-1227426,BiTeRh,0.15730000000000022
mp-1192987,BiW2(Br4O)2,1.6006
mp-1193947,BiW2(Cl4O)2,1.7982
mp-1214148,BiWO4,1.3225999999999996
mp-1044227,BiWO5,0.17089999999999994
mp-1196930,BiXeF7,2.1558
mp-555132,BiXeF9,1.9537
mp-28460,Br2O,1.3643999999999998
mp-28933,Br2O3,1.7587
mp-554129,Br3N(O2F5)2,1.4972
mp-1066781,BrCl,1.783
mp-755831,BrClO,1.1661
mp-23297,BrF3,2.1576
mp-27987,BrF5,3.4378
mp-555071,BrN(OF2)2,2.3409999999999997
mp-1198478,BrN3,1.9874
mp-1106142,BrN4,0.08150000000000013
mp-1102937,BrNO,1.3163
mp-29526,BrNO3,2.1636
mp-36262,BrO2F,2.8867
mp-1182418,BrO4,0.7492000000000001
mp-22966,C(ClF)2,5.7067999999999985
mp-1194028,C(N2O)2,0.6558999999999999
mp-1197051,C(NO)2,1.7931
mp-560169,C(SN)2,0.5421
mp-28131,C(Se2Br)2,1.4971
mp-647169,C10F3,2.1935
mp-1214681,C10S(Cl4O)3,3.3715
mp-1588,C11F7,2.2206
mp-1104073,C11N4,2.4166000000000007
mp-1203403,C121(SCl10)2,1.5729
mp-1214425,C12BrF9,3.5589
mp-1214334,C12SF10,3.1519999999999997
mp-555582,C12SeF10,2.7508
mp-646059,C13Cl3,2.1015
mp-1196461,C13F7,1.1244
mp-1214506,C15Br7,1.2305
mp-1214340,C15BrCl6,1.4308999999999998
mp-28709,C15S4,1.5052
mp-1196803,C16Cl,1.3166999999999998
mp-644802,C17F5,0.9742
mp-1214339,C18BrF13,3.7965
mp-29479,C2(OF2)3,4.3593
mp-1214619,C20Cl18O,1.3781
mp-646122,C20Cl3,1.4316
mp-647192,C28Cl5,1.3573000000000002
mp-1087519,C2BrNO,2.9994
mp-683965,C2F,2.0814
mp-652200,C2IO,2.0163
mp-2718,C2N,3.1235
mp-1214250,C2N2O,2.2022
mp-1182116,C2N2O5,3.4801
mp-1189989,C2NCl,1.5027
mp-1079864,C2NClO,3.3937
mp-31306,C2O3F2,5.2829
mp-558545,C2S(NCl)3,3.1683000000000003
mp-555888,C2S(OF)4,6.1791
mp-1204119,C2S2N(O2F3)2,0.2416999999999998
mp-1214223,C2S2NCl3,1.5677
mp-1214225,C2S3I,1.6663
mp-540807,C2S3N2,2.6373
mp-29477,C2S7Cl6,2.8703
mp-30063,C2S9N2,2.5805
mp-555625,C2SClO4F3,5.0535999999999985
mp-1214118,C2SF6,4.0615000000000006
mp-616463,C2SN2,3.718
mp-559455,C2SNCl2F5,3.4123
mp-1198997,C2SNOF,3.7967
mp-6615,C2Se(SN)2,2.2407
mp-542699,C2Se3N2,1.9759
mp-639826,C2SeN2,3.3360000000000003
mp-1192990,C2SeNClO2,1.8855
mp-557877,C2SeS2O7F6,3.6235
mp-555948,C37F21,2.0180000000000002
mp-1214273,C3Br2O,1.5331
mp-1214194,C3Cl2O,1.4386
mp-1214300,C3F2,2.9477
mp-1195459,C3F5,4.578200000000002
mp-554739,C3ICl(OF3)2,3.0782
mp-1214186,C3IF2,2.7299
mp-1182130,C3IN,2.0242
mp-1188347,C3N2,3.7444
mp-971684,C3N4,1.1814999999999998
mp-1182000,C3NCl,1.4310999999999998
mp-561848,C3O2,3.8777
mp-1214145,C3OF2,1.7309
mp-1182437,C3S2(OF2)2,3.6093
mp-555503,C3S2ClO2F3,3.6282
mp-1214211,C3S3O2,1.3955
mp-1203337,C3S4,1.4712
mp-30078,C3S8,1.7321
mp-1199083,C4(N3O)3,0.2736000000000001
mp-1200162,C41F14,1.2343000000000002
mp-1214607,C4Cl5,2.4130000000000003
mp-1214748,C4N3,2.861
mp-1214375,C4NCl2,2.9975
mp-1214251,C4NCl3,2.1652
mp-1001594,C4O3,2.4645
mp-556192,C4O5F6,5.3178
mp-1214257,C4SBr4,2.6842
mp-638445,C4SO2,1.4474
mp-1214253,C4SeBr4,2.7729
mp-560839,C4SeO2,1.4248999999999998
mp-1195608,C50Cl11,1.7005999999999997
mp-1214283,C5Cl4,2.2723
mp-1214262,C5F6,2.9621
mp-651723,C5N4,5.8856
mp-1182500,C5N4O3,2.5669999999999997
mp-1197923,C61O2,1.2893
mp-645279,C68OF20,1.4309
mp-1214333,C6BrF4,3.5525
mp-1214171,C6F5,3.7654
mp-1214405,C6IF7,2.9866
mp-1214997,C6N7Cl3,2.7092
mp-722472,C6S3(N3Cl)2,0.501
mp-1214386,C7Cl5,2.0726
mp-1214294,C7Cl8,3.0327
mp-645316,C7F3,1.4237999999999995
mp-1204260,C7I3N4,0.002599999999999991
mp-683911,C7SeNF5,3.0328
mp-1214185,C8Cl3F2,2.1722
mp-1214363,C8Cl4O3,2.4904
mp-1214421,C8Cl5,2.0377
mp-1182588,C8I3N4,0.029399999999999867
mp-1196206,C9Cl,1.3653
mp-1199402,C9F5,1.501
mp-28765,CBr3F,3.3196000000000003
mp-1214136,CBrF2,4.5146
mp-27989,CBrN,5.1
mp-1214295,CCl,2.1032
mp-1214217,CCl2,3.8089
mp-27727,CCl2O,4.5857
mp-1214207,CCl3,4.6949000000000005
mp-23071,CCl3F,4.8988
mp-1004532,CCl4,4.5106
mp-28473,CClF3,6.6055
mp-1214158,CF,4.4695
mp-559432,CF2,4.9033
mp-1167,CF4,9.0612
mp-1197830,CI,3.4057
mp-1198908,CI(NO)3,0.8452999999999999
mp-556844,CIClF4,2.6833
mp-556845,CIF3,3.6942
mp-676711,CIF5,1.2211
mp-29409,CIF7,4.6791
mp-30068,CIN,4.3987
mp-555996,CIN2(O2F)3,3.3351
mp-27461,CN,4.8639
mp-1019086,CN2,4.634
mp-1182145,CN2O,0.29600000000000026
mp-1188937,CN3Cl,0.4779
mp-1190824,CN4Cl,1.2831
mp-1197543,CN6O,3.6632
mp-571324,CNCl,3.7684
mp-1105579,CNClO,1.0819
mp-1202752,CNClO4,0.35009999999999986
mp-1103367,CNO,0.0060999999999999934
mp-1214309,CNO2,2.9031
mp-20066,CO2,6.6332
mp-1191171,CS(NO)2,1.5255
mp-27814,CS14,2.5353
mp-2232,CS2,3.4275
mp-560879,CS2(NCl)3,2.6841
mp-30054,CS2N,2.9819999999999998
mp-1182525,CS2N2O,2.5928
mp-23150,CS2NClO2,2.7073
mp-555513,CS2NF5,2.9184
mp-1199888,CS3,0.2287
mp-559900,CS3(Br2N)2,1.2836
mp-1215137,CS30,0.16440000000000055
mp-29700,CS3N,2.8222
mp-28390,CS3N4,1.9381
mp-558295,CS3N5Cl,2.2804
mp-555016,CS3NO2F3,3.2456
mp-555309,CS4N2(OF)3,1.3596
mp-1200583,CS4N4ClO2,0.722
mp-1215005,CS5,0.5392999999999999
mp-558959,CS5N5O3F,1.8811
mp-558648,CSCl(OF)3,4.6094
mp-554711,CSCl2,2.9369
mp-1214102,CSN2,2.4825000000000004
mp-648193,CSN2OF2,3.8454
mp-559889,CSNCl,2.7545
mp-1214114,CSNCl2F5,4.0189
mp-556223,CSNF5,5.4307
mp-559873,CSNO2F3,4.7073
mp-554110,CSNO3,3.7853
mp-672266,CSNOF5,4.0702
mp-634755,CSO,4.4961
mp-647549,CSe(ClF)3,2.8954
mp-1071625,CSe2,2.3468
mp-555329,CSe2S2N2(OF)3,1.4531
mp-638137,CSeN,2.1805
mp-1047036,Ca(AgO2)2,0.9283
mp-676724,Ca(Al3Te5)2,0.8812999999999995
mp-570703,Ca(AlCl4)2,5.4214
mp-1198688,Ca(AlH4)2,4.7123
mp-14422,Ca(AlS2)2,3.6113
mp-36988,Ca(AlSe2)2,2.8458
mp-4555,Ca(AsO3)2,3.2948000000000004
mp-28153,Ca(AuF6)2,1.5298999999999998
mp-2898,Ca(AuO2)2,1.6618000000000004
mp-1204348,Ca(B2O5)3,0.0413
mp-558358,Ca(B3O5)2,5.8213
mp-10289,Ca(BC)2,0.4750999999999994
mp-1227328,Ca(BC3)2,0.8715000000000006
mp-1196257,Ca(BH)12,4.9123
mp-1078932,Ca(BH)2,0.31610000000000005
mp-1190619,Ca(BH4)2,4.9741
mp-8056,Ca(BO2)2,6.0203000000000015
mp-1200657,Ca(BO2)3,0.5519999999999999
mp-1193777,Ca(BO3)3,0.10030000000000006
mp-1181911,Ca(BO4)2,0.17899999999999994
mp-1204932,Ca(BO4)3,0.1313000000000002
mp-1192983,Ca(BO5)2,1.3158
mp-30958,Ca(BS2)2,3.0095
mp-1018630,Ca(BeAs)2,0.6618999999999993
mp-11918,Ca(BeN)2,2.3869
mp-1017548,Ca(BeP)2,0.7366000000000001
mp-675592,Ca(Bi2O3)2,0.2779999999999996
mp-558751,Ca(BiO2)2,2.5434
mp-1046237,Ca(BiO2)4,0.4548999999999999
mp-1045327,Ca(BiO3)2,0.4501
mp-29960,Ca(C2N3)2,4.552300000000002
mp-558543,Ca(CO2)2,3.1204
mp-7067,Ca(CdAs)2,0.2208000000000001
mp-9570,Ca(CdP)2,0.8089
mp-7430,Ca(CdSb)2,0.10569999999999967
mp-1214234,Ca(ClO)2,1.7517999999999998
mp-561366,Ca(ClO2)2,2.5666
mp-768870,Ca(ClO3)2,4.7209
mp-1043610,Ca(Co2O3)2,0.2645
mp-510651,Ca(CoO2)2,1.6067999999999998
mvc-12728,Ca(CoS2)2,0.8487
mp-1045417,Ca(CrS2)2,0.3849999999999998
mp-754501,Ca(CuO)2,1.5254000000000003
mp-1047437,Ca(CuO2)2,0.6713
mp-35787,Ca(DyS2)2,2.1664000000000003
mp-1227401,Ca(DyTe2)2,0.5794999999999999
mp-1194059,Ca(ErS2)2,1.5650999999999995
mp-1227387,Ca(ErTe2)2,0.6121000000000003
mp-31851,Ca(Fe2O3)2,1.0624000000000002
mvc-13333,Ca(Fe9O13)2,0.8056999999999999
mvc-12043,Ca(FeO2)2,1.7818999999999998
mp-675750,Ca(Ga3Te5)2,0.9728000000000004
mp-1070099,Ca(GaAs)2,1.0663
mp-559849,Ca(GaO2)2,2.9856
mp-1078849,Ca(GaP)2,0.17439999999999944
mp-14423,Ca(GaS2)2,2.9147000000000003
mp-13873,Ca(GaSe2)2,2.0981
mp-36358,Ca(GdS2)2,1.4014000000000002
mp-19791,Ca(GeRu)2,0.003099999999999881
mp-644307,Ca(H2N)2,2.6985
mp-626227,Ca(H8O5)2,3.8933
mp-23879,Ca(HO)2,3.9545
mp-1194276,Ca(HoS2)2,1.5470000000000002
mp-675701,Ca(HoSe2)2,1.1404
mp-1227385,Ca(HoTe2)2,0.6067999999999998
mp-1105100,Ca(IO2)2,1.5656000000000003
mp-27535,Ca(IO3)2,3.5813000000000006
mp-1193459,Ca(IO6)2,1.4174
mp-1029479,Ca(InN)2,0.14540000000000042
mp-1079772,Ca(InP)2,0.4033999999999995
mp-1227503,Ca(InS2)2,0.32410000000000005
mp-677072,Ca(InTe2)2,0.6854999999999993
mp-755678,Ca(LaI4)2,2.4684
mp-35421,Ca(LaS2)2,2.1455
mp-36031,Ca(LaTe2)2,1.2605000000000004
mp-505362,Ca(LuS2)2,1.5810999999999995
mp-1227408,Ca(LuTe2)2,0.6514999999999995
mp-9564,Ca(MgAs)2,1.2605000000000004
mp-29208,Ca(MgBi)2,0.3886000000000003
mp-9565,Ca(MgSb)2,0.7931000000000008
mp-1042046,Ca(MoO2)2,2.2258
mp-1048485,Ca(MoO3)2,0.5568