task_id,pretty_formula,band_gap
mp-1203125,K2ScSi2O7,0.5108000000000001
mp-557777,K2ScSi4O10F,4.7453
mp-1212024,K2ScSn(AsO4)3,2.5632
mp-1111193,K2ScTlBr6,2.8766000000000003
mp-1111134,K2ScTlCl6,3.3234
mp-1111416,K2ScTlF6,4.6325
mp-560223,K2Se(SO3)2,2.9779
mp-1078456,K2Se2N,0.1891
mp-1080432,K2Se2O,0.07850000000000001
mp-559568,K2Se2O5,3.5339
mp-1190160,K2Se2O7,3.0182
mp-7670,K2Se3,0.6329999999999999
mp-1103551,K2Se4N,0.6772
mp-1103867,K2Se4O,1.0833
mp-18609,K2Se5,0.9323
mp-23036,K2SeBr6,1.6880000000000002
mp-557025,K2SeO4,3.6435
mp-1204915,K2SeS3O7,0.07939999999999997
mp-1019785,K2Si(S2O7)3,5.2762
mp-29825,K2Si2O5,4.3282
mp-1197045,K2Si3PbO10,0.8566
mp-1195099,K2Si3SnO10,0.8942
mp-556797,K2Si3SnO9,3.8617
mp-558603,K2Si4O9,4.447
mp-1196593,K2Si4SbO11,0.3169999999999997
mp-18460,K2Si6GeO15,4.3731
mp-6984,K2SiAs2,1.0021
mp-3042,K2SiF6,7.2224
mp-697910,K2SiH4(NO)2,3.7996
mp-15379,K2SiO3,3.7441
mp-8235,K2SiP2,1.2073999999999998
mp-571473,K2Sm2As2Se9,1.1005
mp-555268,K2Sm2IrO7,0.2634000000000001
mp-1112087,K2SmAgCl6,3.3742
mp-1112063,K2SmAuCl6,2.1048
mp-1211730,K2SmBr5,4.0156
mp-1211774,K2SmCl5,4.812799999999998
mp-1112218,K2SmCuCl6,2.2477
mp-17434,K2SmF5,6.7046
mp-1199136,K2SmMoPO8,3.9908
mp-1211765,K2SmNb5O15,1.9143
mp-772845,K2SmPCO7,4.3337
mp-10776,K2Sn(AsS3)2,1.0089
mp-557121,K2Sn(AuS2)2,1.6433
mp-624486,K2Sn(GeO3)3,2.6278
mp-643371,K2Sn(H2N)6,2.404
mp-510002,K2Sn(HO)6,3.6753
mp-1204525,K2Sn(S2O7)3,3.4297
mp-18115,K2Sn2Hg3S8,1.4179
mp-8624,K2Sn2O3,1.3060999999999998
mp-8965,K2Sn2S5,1.399
mp-8966,K2Sn2Se5,0.8304
mp-1195395,K2Sn3(SbS5)2,1.7765000000000004
mp-1024073,K2Sn3O7,1.9130000000000005
mp-675541,K2Sn5Cl12,2.4961
mp-574040,K2SnBr6,1.6057
mp-1199102,K2SnC4O9,0.3416
mp-1180920,K2SnCl4O,1.7024999999999997
mp-571453,K2SnCl6,2.6688
mp-1205960,K2SnF6,5.3336000000000015
mp-1202709,K2SnH2Cl4O,3.6797
mp-41634,K2SnH2OF6,3.8447
mp-1224808,K2SnHOF6,3.2698
mp-568968,K2SnHgSe4,1.4738
mp-1223855,K2SnHgTe4,1.1023999999999998
mp-752692,K2SnO2,1.5380999999999998
mp-17730,K2SnO3,2.1206000000000005
mp-1079820,K2SnO6,0.1844999999999999
mp-1200678,K2SnOF6,0.8895
mp-554825,K2SnP2O7,4.1772
mp-1120733,K2SnS3,2.2351
mp-9693,K2SnSe3,1.646
mp-29835,K2SnTe3,0.9613
mp-28080,K2SnTe5,0.5637999999999996
mp-1212505,K2Sr(Ge4O9)2,2.9798
mp-569413,K2Sr(NbCl3)6,1.0746000000000002
mp-558990,K2Sr(PO3)4,5.602600000000002
mp-756334,K2Sr2O3,1.9508
mp-567026,K2Sr3Mn2(P2O7)3,4.2811
mp-1198667,K2SrB8(HO)28,5.1238
mp-12626,K2SrBe2F8,7.1625999999999985
mp-863758,K2SrCdSb2,0.3167999999999997
mp-674465,K2SrCl4,4.988099999999998
mp-12161,K2SrCu(NO2)6,0.23960000000000006
mp-19374,K2SrNi(NO2)6,2.1971
mp-557747,K2SrP2O7,4.7677
mp-7148,K2SrTa2O7,2.0693
mp-1224160,K2SrTi10O22,2.6444
mp-567083,K2SrV3O9,2.1927000000000003
mp-19075,K2SrV4O12,3.0368
mp-1200300,K2SrVB5O12,3.9007
mp-6651,K2Ta2(OF2)3,3.9245
mp-31360,K2Ta3Cl9,1.4543000000000004
mp-1195471,K2Ta4O11,3.3488
mp-15216,K2TaAgS4,2.5248
mp-1112417,K2TaAuF6,1.1577000000000002
mp-8972,K2TaCuSe4,1.9842
mp-3975,K2TaF7,5.6084999999999985
mp-1207114,K2TaNbO6,1.6988
mp-1112446,K2TbAgCl6,3.4375
mp-1112060,K2TbAuCl6,2.0558
mp-1211737,K2TbCl5,4.9914000000000005
mp-1111991,K2TbCuCl6,2.3155
mp-1211691,K2TbF5,6.7912
mp-1211773,K2TbNb5O15,1.9317
mp-772871,K2TbPCO7,4.377
mp-1201694,K2Tc9O27F11,2.6599
mp-1206472,K2TcBr6,1.1391
mp-1199033,K2TcCl5O,0.4869
mp-27632,K2TcCl6,1.1425999999999998
mp-1091363,K2TcF6,1.7561
mp-1211633,K2TcH9,4.9508
mp-573568,K2TcI6,0.20120000000000005
mp-1213449,K2Te(MoO5)3,1.9098
mp-566368,K2Te(WO4)3,2.8047
mp-29380,K2Te2As,0.9604
mp-29129,K2Te2O5,3.4082000000000003
mp-1206350,K2Te2Pd,0.7676999999999996
mp-8623,K2Te2Pt,0.7917000000000001
mp-1213027,K2Te2W3O5,0.09489999999999997
mp-7289,K2Te3,0.5694000000000004
mp-29128,K2Te4O9,2.9189000000000003
mp-22963,K2TeBr6,2.3386
mp-569149,K2TeCl6,2.5562
mp-554532,K2TeClF5,4.4512
mp-707744,K2TeH10(NO7)2,2.785
mp-720815,K2TeH6(O3F)2,2.9622
mp-723043,K2TeH6SeO10,3.3695000000000004
mp-1211929,K2TeMo2(PO7)2,2.9596
mp-8724,K2TeO3,3.5774
mp-773785,K2TeO4,2.63
mp-1181043,K2TeO5,0.3719000000000001
mp-11014,K2TeOF4,4.8881
mp-29692,K2TeS3,2.3316
mp-1193713,K2TeSO10,0.059400000000000126
mp-28419,K2TeSe3,1.7896
mp-1195548,K2Th(AsO4)2,3.8897
mp-555425,K2Th(CuS2)2,1.1260000000000003
mp-566934,K2Th(MoO4)3,3.6331
mp-1212266,K2Th(NO3)6,3.5689
mp-568203,K2Th(PSe3)3,1.7459000000000002
mp-1194804,K2Th3Mg(MoO4)8,3.6305
mp-1223876,K2ThF6,6.5833
mp-1211547,K2ThO3,3.7238
mp-1211474,K2Ti(CuS2)2,1.6299
mp-680158,K2Ti(GeO3)3,2.8471
mp-557301,K2Ti(Si2O5)3,3.4251
mp-556719,K2Ti(SiO3)3,3.3701
mp-1223905,K2Ti(TeO4)3,1.4804
mp-28075,K2Ti2O5,3.2268
mp-8065,K2Ti6O13,2.7535
mp-762279,K2Ti8O17,2.7787
mp-677733,K2TiAl(PO4)3,2.8995
mp-27839,K2TiCl6,2.0826
mp-1224541,K2TiCr(PO4)3,2.638
mp-1201396,K2TiF5,0.06710000000000038
mp-3970,K2TiF6,4.7349
mp-1211716,K2TiGe(PO5)2,3.2743
mp-703516,K2TiH2O3F4,2.5149
mp-1112360,K2TiHgF6,2.1077
mp-13133,K2TiO3,3.4121
mp-1203575,K2TiO3F4,0.17909999999999998
mp-556623,K2TiOF4,3.0222
mp-755542,K2TiPCO7,0.1251000000000002
mp-28766,K2TiS3,1.1217
mp-758597,K2TiSi3(HO5)2,3.4247
mp-1197256,K2TiSi3O10,0.9458
mp-1211941,K2TiZnO4,3.6492
mp-1112272,K2TlAgF6,0.4234
mp-1111589,K2TlAsBr6,1.0653
mp-1111588,K2TlAsCl6,1.4877999999999998
mp-1111426,K2TlAsF6,2.7274000000000003
mp-1111200,K2TlAsI6,0.8611
mp-1111569,K2TlBiF6,2.938
mp-1180950,K2TlCl5O2,0.373
mp-1111137,K2TlGaBr6,1.3834
mp-1111581,K2TlGaCl6,2.3222
mp-1111372,K2TlGaF6,4.1632
mp-1111197,K2TlGaI6,0.4975000000000001
mp-1111578,K2TlInBr6,1.5968
mp-1111577,K2TlInCl6,2.384
mp-1111423,K2TlInF6,3.4654
mp-1111269,K2TlInI6,0.8332999999999999
mp-1111422,K2TlIrF6,2.0094000000000003
mp-1178146,K2TlPCO7,1.2926
mp-1111368,K2TlRhF6,1.8075
mp-1111195,K2TlSbBr6,1.1068
mp-1111196,K2TlSbCl6,1.541
mp-1111125,K2TlSbF6,2.3838
mp-1112443,K2TmAgCl6,3.4539999999999997
mp-1112061,K2TmAuCl6,1.9532
mp-1112215,K2TmCuCl6,2.2995
mp-1211536,K2TmF5,6.8028
mp-772802,K2TmPCO7,4.4497
mp-1211904,K2U(MoO4)3,0.02829999999999977
mp-574428,K2U(PSe3)3,0.11139999999999972
mp-1192306,K2U(PdS2)3,0.00890000000000013
mp-867931,K2U(SO6)2,0.15589999999999993
mp-1195515,K2U(Si2O5)3,0.27639999999999976
mp-561479,K2U(WO5)2,2.0235
mp-1181919,K2U2Cr2H2O17,0.1291
mp-1196582,K2U2Cr2O15F2,0.7243000000000002
mp-704306,K2U2MoO10,1.6901
mp-29361,K2U2O7,1.6393
mp-581259,K2U2WO10,1.8912
mp-556374,K2U3(IO5)4,1.8921
mp-11887,K2U3(TeO7)2,1.8406
mp-1212194,K2U3H4(O3F4)2,2.1352
mp-540610,K2U7O22,1.4469000000000003
mp-558707,K2UAs2O9,2.4232
mp-28776,K2UBr5,0.1168
mp-28496,K2UCl5,0.1198999999999999
mp-566372,K2UCr(IO6)2,2.1162
mp-1224157,K2UF6,0.2025999999999999
mp-1198363,K2UH4C4SNO10,1.6461
mp-1197429,K2UH4C5(NO6)2,0.3368
mp-766416,K2UH6C2SO13,1.7241
mp-616641,K2UI5,0.3168000000000002
mp-567163,K2UMo(IO6)2,2.1943
mp-3808,K2UO4,1.9745
mp-722535,K2UP2(H2O5)2,0.006900000000000003
mp-863004,K2USO7F2,0.4244
mp-10434,K2UTe3,0.009300000000000086
mp-18935,K2V(PO4)2,2.6958
mp-1190373,K2V2CoO7,2.4697
mp-1099837,K2V2O5,1.0549000000000002
mp-619577,K2V2P4O15,2.8177000000000003
mp-19596,K2V3O8,2.0111
mp-1203971,K2V3P2O13F2,0.6816
mp-743881,K2V3P4H4O19,1.9763
mp-578934,K2V3P4O17,1.6882
mp-641959,K2V8O21,1.2759
mp-8900,K2VAgS4,1.3452
mp-14634,K2VAgSe4,1.0266
mp-1223921,K2VCo6Cu2As5O24,0.8713000000000002
mp-15147,K2VCuS4,1.2669
mp-15220,K2VCuSe4,1.0028
mp-25626,K2VH2OF5,2.2231
mp-601777,K2VH4C4O9,2.9132
mp-18832,K2VO2F3,2.9836
mp-1201198,K2VO6,0.0297
mp-1224276,K2VOF4,2.7735
mp-773260,K2VPCO7,1.6536
mp-565565,K2VPO6,3.3851000000000004
mp-1181389,K2W2O15,0.11530000000000018
mp-1097834,K2W2O5,0.10729999999999996
mp-773966,K2W3O10,1.3463
mp-761775,K2W4O13,1.7604
mp-566302,K2WC2O9,2.7887000000000004
mp-772367,K2WO4,4.5029
mp-505403,K2WO8,2.927
mp-18138,K2WSe4,1.2241
mp-1211807,K2Y2(PO4)3,0.0306
mp-863763,K2Y4Cu4Se9,0.7107999999999999
mp-560785,K2Y4Sn2S11,1.5806
mp-1110911,K2YAgBr6,3.0812
mp-1110872,K2YAgCl6,3.5066
mp-1110847,K2YAgF6,2.6293
mp-1110947,K2YAgI6,2.5089
mp-1112058,K2YAuBr6,1.6798
mp-1112059,K2YAuCl6,2.079
mp-1112320,K2YAuF6,1.3769
mp-1112056,K2YAuI6,1.1783
mp-1211533,K2YCl5,4.7822
mp-1112034,K2YCuBr6,2.1375
mp-1112158,K2YCuCl6,2.3935000000000004
mp-1110942,K2YCuI6,1.7749
mp-17077,K2YF5,6.8081
mp-532704,K2YHf(PO4)3,4.7808
mp-1111679,K2YInCl6,3.0455
mp-1111119,K2YInF6,3.2879
mp-558325,K2YNb5O15,1.6085
mp-756647,K2YPCO7,4.4412
mp-686482,K2YTi(PO4)3,2.5582
mp-1111194,K2YTlBr6,3.4148
mp-1111122,K2YTlF6,4.3375
mp-532727,K2YZr(PO4)3,4.564
mp-1211880,K2Yb2(PO4)3,0.007700000000000041
mp-758068,K2Yb2O3,2.2465
mp-1211487,K2YbF5,0.00439999999999996
mp-1212537,K2YbGe4O11,0.07259999999999989
mp-6424,K2Zn(CN)4,6.0508000000000015
mp-560398,K2Zn(GeO3)2,2.8725
mp-722979,K2Zn(H2N)4,1.98
mp-1019791,K2Zn(PO3)4,4.8504
mp-555652,K2Zn(SO4)2,4.3984999999999985
mp-555568,K2Zn(Si2O5)2,4.2665
mp-555318,K2Zn(SiO3)2,3.9191
mp-1195072,K2Zn(SnSe3)2,1.582
mp-6115,K2Zn2(SO4)3,4.3495
mp-559127,K2Zn2Si8O19,4.2179
mp-560668,K2Zn3(P2O7)2,4.2079
mp-1195606,K2Zn3(SeO3)4,4.1184
mp-28371,K2Zn3O4,1.4083
mp-707310,K2Zn3P4(HO3)4,4.9236
mp-1147664,K2Zn3S4,2.5381
mp-1232308,K2Zn3Se4,1.9035
mp-1223862,K2Zn3SiAs4,0.19720000000000004
mp-1181674,K2Zn4P4O21,0.0032999999999998586
mp-1191100,K2Zn5As4,0.22849999999999995
mp-540728,K2Zn6O7,0.7588000000000001
mp-23535,K2ZnBr4,3.6745
mp-653633,K2ZnCl4,4.5132
mp-1195983,K2ZnCr2(H2O5)2,2.7051
mp-743866,K2ZnCr4(HO4)4,2.5866
mp-9583,K2ZnF4,4.3016000000000005
mp-6386,K2ZnGeO4,2.8518
mp-24366,K2ZnH12(SO7)2,4.8902
mp-1197205,K2ZnH12(SeO7)2,3.6588
mp-695998,K2ZnH4,4.118
mp-863752,K2ZnH4(I2O7)2,3.111
mp-574148,K2ZnN12,3.7076
mp-1104128,K2ZnN4,0.7795
mp-8187,K2ZnO2,1.9785
mp-16695,K2ZnP2O7,4.129
mp-757470,K2ZnP4(HO2)8,5.0611
mp-1147773,K2ZnS2,2.6331
mp-1232317,K2ZnSe2,2.1221
mp-1224204,K2ZnSi3O8,3.2584
mp-541537,K2ZnSiO4,3.4889
mp-8891,K2Zr(BO3)2,3.4092
mp-1223853,K2Zr(PO4)2,4.518000000000002
mp-6600,K2Zr(SiO3)3,4.8118
mp-1180937,K2Zr2Cu(OF2)6,0.6944000000000004
mp-1199679,K2Zr2NiH12(OF2)6,5.0813000000000015
mp-27522,K2Zr2O5,3.8226
mp-707219,K2Zr2ZnH12(OF2)6,5.1135
mp-17888,K2Zr3OF12,5.4252
mp-698292,K2ZrCdH16(CO3)8,2.9671000000000003
mp-5450,K2ZrF6,5.5342
mp-1211889,K2ZrFe(PO4)3,2.6188
mp-16871,K2ZrGe2O7,3.9038
mp-18449,K2ZrO3,3.6641
mp-1196465,K2ZrS2(O5F)2,0.18909999999999996
mp-1203851,K2ZrS3O14,0.3461
mp-560331,K2ZrS4,1.8944
mp-559489,K2ZrSi2O7,4.5246
mp-720643,K2ZrSi3(HO5)2,4.9328
mp-1201292,K2ZrSi3O10,0.7150000000000001
mp-1202728,K2ZrSi3O11,0.5151
mp-29602,K2ZrTe3,0.411
mp-17174,K3(Cu4S3)2,0.0043999999999995145
mp-4647,K3(Cu4Se3)2,0.5441000000000003
mp-1224086,K3(FeO2)4,0.0663
mp-541998,K3(FeSe2)2,0.015200000000000102
mp-558857,K3(Mo7O11)2,0.03580000000000005
mp-1104301,K3(PbCl4)2,0.0938000000000001
mp-1192486,K3(SeO4)2,0.3862
mp-1225940,K30Ga9As19,0.18009999999999993
mp-1225850,K30Ga9Sb19,0.28669999999999995
mp-1228670,K38Nb7As24,0.013100000000000113
mp-1181229,K3Ag2(PO4)5,0.1527
mp-14206,K3Ag3As2,1.2540999999999998
mp-1224211,K3Ag9(SbS3)4,1.6011000000000002
mp-557393,K3AgC4(SN)4,3.5704
mp-572510,K3AgO2,1.8096
mp-571594,K3AgSn3Se8,1.1216000000000002
mp-1197607,K3Al(PO4)2,4.521
mp-1197125,K3Al2(AsO4)3,3.2427
mp-560629,K3Al2(PO4)3,4.4329
mp-28347,K3Al2As3,1.1862
mp-1198028,K3Al2Si4O13,1.1151
mp-1200456,K3Al3OF12,0.9787
mp-1212431,K3Al3Si3(WO3)4,0.35070000000000023
mp-1181028,K3Al3Si3O16,0.029299999999999993
mp-558240,K3Al4P2O8F9,5.456
mp-541682,K3AlAs2,0.4517
mp-561447,K3AlB8O15,5.0001
mp-1111185,K3AlBr6,3.1738
mp-1111502,K3AlCl6,4.4689
mp-1095079,K3AlF6,6.2965
mp-24034,K3AlH6,2.8773
mp-1110930,K3AlI6,1.7713
mp-9157,K3AlO3,2.8977
mp-541684,K3AlP2,0.6989999999999998
mp-18217,K3AlSe3,2.3566
mp-18378,K3AlTe3,2.117
mp-14018,K3As,0.1135
mp-1197620,K3As(PSe3)3,1.5558
mp-541000,K3As11,1.4670999999999998
mp-1200450,K3As2O11,0.12619999999999998
mp-680329,K3As7,1.4029000000000005
mp-1110929,K3AsBr6,2.9087
mp-1111182,K3AsCl6,3.4292
mp-1111501,K3AsF6,4.346
mp-1111178,K3AsI6,2.0463
mp-680301,K3AsO4,3.3075
mp-1193111,K3AsS3,2.641
mp-3797,K3AsS4,2.0132
mp-18594,K3AsSe3,2.1092
mp-1197539,K3AsSe4,1.1008
mp-1211803,K3Au3Br8,1.0248
mp-1211892,K3Au3I8,1.0462
mp-1111499,K3AuCl6,0.2609
mp-1111498,K3AuF6,0.7523
mp-9200,K3AuO,0.5646
mp-28606,K3AuSe13,0.7186000000000001
mp-15571,K3AuSe2,2.0531
mp-1019789,K3B(SO4)3,5.2623
mp-510549,K3B12H12Br,4.7863
mp-24240,K3B12H12I,4.6690000000000005
mp-1181183,K3B3O10,0.5681
mp-23612,K3B6BrO10,5.2120000000000015
mp-1189091,K3B6ClO10,5.373100000000001
mp-9665,K3BAs2,1.3130000000000002
mp-1029756,K3BN2,1.5852000000000002
mp-9664,K3BP2,1.666
mp-1202621,K3BP3(HO4)3,4.848
mp-29975,K3BS3,2.7148
mp-558607,K3BSb4O13,1.8698
mp-1195057,K3Ba3Li2Al4B6O20F,4.1183
mp-39699,K3Ba7Ti10(O9F)3,0.03859999999999975
mp-756876,K3BaPCO7,3.9056
mp-1202397,K3Be2H7C3O13,4.5718
mp-1212145,K3Be3B3P6O25,0.00219999999999998
mp-17895,K3BeF5,6.2164
mp-772780,K3BePCO7,4.0032000000000005
mp-569940,K3Bi,0.046599999999999975
mp-865961,K3Bi(AsSe2)6,1.3967000000000005
mp-554216,K3Bi(PS4)2,2.0899
mp-561369,K3Bi2(AsO4)3,3.3384
mp-1199040,K3Bi2(NO3)9,3.5856000000000003
mp-560420,K3Bi2(PO4)3,3.7816
mp-1203444,K3Bi3(PS4)4,2.3129
mp-567022,K3Bi5(AsO4)6,3.4166000000000003
mp-565692,K3Bi5(PO4)6,4.0534
mp-1196099,K3Bi7(SO6)4,3.1917
mp-1110928,K3BiBr6,3.4347
mp-1110887,K3BiCl6,4.0101
mp-1110960,K3BiI6,2.5794
mp-29524,K3BiO3,2.9552
mp-30120,K3BiO4,1.1394
mp-767416,K3BiPCO7,0.4455
mp-28980,K3BiSe3,2.0592
mp-29379,K3BiTe3,1.4987
mp-1223790,K3BrCl2,4.4933999999999985
mp-28166,K3BrO,0.889
mp-1070737,K3CO,0.2972
mp-8773,K3CO3F,3.8463
mp-1104232,K3Ca(PO4)2,0.10149999999999998
mp-720217,K3Ca2Mg10Si16(HO12)4,0.7841
mp-696878,K3CaP2HO8,4.9617
mp-756968,K3CaPCO7,4.313
mp-583029,K3CaV5O15,2.7283
mp-1204785,K3Cd(BO2)5,3.8155
mp-1211778,K3Ce(AsO4)2,0.20289999999999964
mp-17189,K3Ce(PO4)2,0.3656000000000006
mp-21557,K3Ce(PS4)2,0.1660999999999997
mp-1110927,K3CeBr6,0.3148
mp-1111177,K3CeCl6,0.34399999999999986
mp-1110959,K3CeI6,0.2764000000000002
mp-572291,K3ClO,1.0785
mp-1204325,K3Co(C3O7)2,0.21819999999999995
mp-6219,K3Co(CN)6,4.3253
mp-24871,K3Co(NO2)6,2.6983
mp-555480,K3Co2F7,2.3726000000000003
mp-1111145,K3CoF6,1.3114
mp-31577,K3CoO2,1.5331
mp-773278,K3CoPCO7,2.5829
mp-568773,K3Cr(CN)6,1.8010000000000002
mp-541174,K3Cr(HO)6,3.1910000000000003
mp-654008,K3Cr11S18,0.3485000000000005
mp-1211915,K3Cr2(AsO4)3,2.2008
mp-559251,K3Cr2(PS4)3,1.2898
mp-683600,K3Cr4PO16,2.7012
mp-565411,K3CrC3N3O4,2.0845
mp-705039,K3CrC5N6O,0.7213
mp-690521,K3CrF3,0.06440000000000001
mp-1111695,K3CrF6,2.2466
mp-19414,K3CrO4,1.2393999999999998
mp-18876,K3CrO8,1.7840999999999998
mp-774255,K3CrPCO7,2.6393
mp-6610,K3Cu(CN)4,4.1662
mp-559099,K3Cu(NO3)5,0.8737999999999999
mp-569136,K3Cu11Te16,0.06309999999999949
mp-556522,K3Cu2(BiS2)5,0.5758000000000001
mp-695887,K3Cu2P4HO14,0.32510000000000017
mp-14205,K3Cu3As2,1.2804
mp-7439,K3Cu3P2,1.2892
mp-10914,K3Cu5O4,1.5556
mp-773133,K3CuB2P4H3O17,0.7381
mp-28273,K3CuO2,1.5215999999999998
mp-558415,K3CuP2S7,2.2345
mp-772819,K3CuPCO7,0.2125999999999999
mp-866661,K3Dy(AsS4)2,1.6543
mp-1111175,K3DyCl6,4.561
mp-1211654,K3DyF6,6.4356
mp-16595,K3DySi2O7,3.7064
mp-1205074,K3Er(SO4)3,5.337700000000001
mp-1224443,K3Er4(CuTe2)5,0.4847999999999999
mp-1224251,K3Er7S12,1.8304
mp-30197,K3ErCl6,5.1968999999999985
mp-1211695,K3ErF6,6.5064
mp-709058,K3ErH9(C3O7)2,0.3059000000000001
mp-16597,K3ErSi2O7,3.737200000000001
mp-758527,K3ErSi3(HO5)2,4.634
mp-1205279,K3Fe(C2O5)3,0.6022999999999998
mp-1199661,K3Fe(CO2)6,2.4662
mp-649524,K3Fe2(PO4)3,2.266
mp-745015,K3Fe3P4H2O17,2.2497
mp-579722,K3Fe5(PO4)6,1.9074
mp-1204955,K3Fe6F19,0.03509999999999991
mp-690534,K3FeF3,0.8191000000000002
mp-1212653,K3FeH3(CO2)6,2.1505
mp-1181219,K3FeMo4O15,2.5237
mp-31898,K3FeO2,1.1592
mp-504570,K3FeO3,1.9437
mp-505092,K3FeO4,0.2433
mp-770044,K3FePCO7,3.7430000000000003
mp-6805,K3Ga2(PO4)3,3.9207
mp-567524,K3Ga3As4,0.8722000000000001
mp-1110886,K3GaBr6,2.0602
mp-1110859,K3GaCl6,3.3567
mp-1111080,K3GaF6,5.806100000000002
mp-1110958,K3GaI6,0.8318000000000001
mp-13743,K3GaO3,2.6210000000000004
mp-541686,K3GaS3,2.7118
mp-541687,K3GaSe3,2.0865
mp-1196955,K3GaTe2O11,0.7039
mp-541688,K3GaTe3,1.5257
mp-1211764,K3Gd(BO3)2,2.69
mp-978099,K3Gd(PO4)2,2.8376
mp-604889,K3Gd3(PS4)4,1.4978000000000002
mp-566293,K3Gd5(PO4)6,2.7396000000000003
mp-1211966,K3GdCl6,2.7702
mp-13229,K3GdF6,4.5665
mp-738657,K3GdH6(C2O5)3,2.9734000000000003
mp-680437,K3GdSi2O7,3.2393
mp-17112,K3Ge4Au,0.8272999999999999
mp-697540,K3GeH2NO3,3.1785
mp-24340,K3GeH3S3O2,2.9783
mp-756801,K3GePCO7,3.6868
mp-14434,K3GeS3,2.4021000000000003
mp-14435,K3GeSe3,1.8142
mp-27331,K3GeTe3,1.0607000000000002
mp-23779,K3H(SO4)2,5.5008
mp-1224049,K3H(SeO4)2,3.3036
mp-720710,K3H2S2NO7,4.7357999999999985
mp-707337,K3H3Pd,1.7674
mp-1205248,K3H3PtS2Br2O7,2.7887
mp-698122,K3H3S2(O4F)2,1.1044
mp-642736,K3H5Pd,2.9599
mp-642821,K3H5Pt,3.1251
mp-753955,K3H8RhC4(ClO6)2,2.1421
mp-697127,K3HPdS2(ClO3)2,2.1594
mp-706983,K3HPtS2(ClO3)2,3.0012
mp-697108,K3HRhC5N5O,3.8356
mp-1200107,K3HS3O11,5.1526999999999985
mp-1211819,K3Hf4Ag2F23,0.6511
mp-561414,K3Hg3S2Br5O6,1.999
mp-560777,K3Hg3S2Cl5O6,2.3158
mp-6569,K3HgN5O11,2.4972
mp-1192630,K3Ho(PO4)2,5.0687
mp-560105,K3Ho(SiO3)3,3.7625
mp-1211924,K3HoCl6,5.0152
mp-1211714,K3HoF6,6.4923
mp-16596,K3HoSi2O7,3.722
mp-1203277,K3HoSi3O10,0.0781
mp-1223867,K3I2Br,3.7369
mp-28171,K3IO,1.0263999999999998
mp-984107,K3IO5,1.2569
mp-1211728,K3In(IO3)6,3.2503999999999995
mp-1224542,K3In(PO4)2,3.3715
mp-583615,K3In2As3,0.5968999999999998
mp-554506,K3In3(PO4)4,3.4717
mp-1111490,K3InBr6,2.4086
mp-1211964,K3InC12(O2F3)6,4.6435
mp-569132,K3InCl6,3.4614000000000003
mp-27526,K3InF6,5.322100000000002
mp-1111459,K3InI6,1.2778
mp-20256,K3InP2,0.7887
mp-1201939,K3IrC4Cl2O9,0.1155
mp-541141,K3IrCl6,1.9930000000000003
mp-1111425,K3IrF6,2.3062
mp-975577,K3La(AsO4)2,3.8569999999999998
mp-1019793,K3La(PO4)2,4.484
mp-16209,K3La(PS4)2,2.4498
mp-542079,K3La(PSe4)2,1.4575
mp-680063,K3La2(NO3)9,3.466
mp-1111424,K3LaCl6,4.461
mp-766938,K3Li2Nb5O15,2.5576000000000003
mp-560739,K3Li3TeO6,2.6948
mp-561288,K3LiIrO4,0.3984999999999999
mp-694935,K3LiMg4(Si2O5)6,4.7657
mp-743574,K3LiMn4(MoO4)6,2.7483
mp-1019794,K3LiP2O7,4.876
mp-1212210,K3LiPb4,0.2197
mp-28316,K3LiSi4,1.5221999999999998
mp-561474,K3LiSiO4,3.6727
mp-755707,K3LiTi7O16,2.8256
mp-1211659,K3Lu(BO3)2,3.2804
mp-18150,K3Lu(PO4)2,4.9407
mp-653861,K3Lu(SiO3)3,3.4819
mp-1181370,K3LuB2(PO7)2,0.0504
mp-1111421,K3LuCl6,4.5926
mp-1211665,K3LuF6,6.4831
mp-557543,K3LuSi2O7,3.6083
mp-1202432,K3Mg18Pb11,0.20809999999999995
mp-1204087,K3Mg18Sn11,0.23350000000000026
mp-1211609,K3Mg2Cl7,4.5853
mp-768670,K3MgPCO7,4.4383
mp-28076,K3Mn2Cl7,1.4235
mp-554144,K3Mn2F7,2.7835
mp-510713,K3Mn2O8,0.008699999999999986
mp-744691,K3Mn3H2C12O13,1.8800000000000003
mp-1003764,K3Mn4O8,0.4041999999999999
mp-1224486,K3Mn4P5H3O20,0.7713999999999999
mp-761384,K3MnCrO8,0.8097
mp-643245,K3MnH5,1.5731000000000002
mp-554728,K3MnO3,1.5819
mp-19140,K3MnO4,1.9806
mp-1178149,K3MnPCO7,3.618100000000001
mp-579015,K3Mo12PO40,2.2502
mp-570000,K3Mo2Br9,0.9673
mp-566373,K3Mo2BrO7,3.0918
mp-620069,K3Mo2Cl9,0.9318
mp-1211951,K3Mo3C3(Se2N)2,0.08460000000000001
mp-651347,K3Mo3Se14,0.9008000000000004
mp-1203121,K3Mo4(P2O11)2,0.14070000000000005
mp-1181887,K3Mo4CSNO16,0.7926000000000001
mp-744188,K3Mo4H6O16F,3.3110000000000004
mp-1212278,K3Mo4O16F,1.1206
mp-1110884,K3MoBr6,1.5482
mp-27643,K3MoCl6,1.6431
mp-553896,K3MoF6,3.353
mp-1110957,K3MoI6,1.4013000000000002
mp-675156,K3NO,0.0979
mp-28111,K3NO3,0.2018
mp-28202,K3NO4,3.6478
mp-1224582,K3Na(B3O5)4,5.2989
mp-18730,K3Na(FeO4)2,1.3601
mp-622501,K3Na(MoO4)2,4.4673
mp-22457,K3Na(SO4)2,5.2921000000000005
mp-17839,K3Na(SeO4)2,3.5517
mp-553975,K3Na2InO4,1.9057
mp-559875,K3Na2LiTeO6,2.2126
mp-18447,K3Na2SnAs3,0.5786000000000002
mp-568329,K3Na2SnBi3,0.002699999999999925
mp-16847,K3Na2SnP3,0.9637000000000002
mp-557181,K3Na3(NO4)2,4.0476
mp-560541,K3Na3Nb8(PO7)5,0.05010000000000003
mp-720804,K3Na3TeP6(HO4)6,4.0183
mp-581403,K3Na4Si3BF22,6.9785
mp-1076888,K3Na5V3(MoO4)5,0.057500000000000114
mp-1076540,K3Na5VMo7O20,0.4590000000000001
mp-1224548,K3Na7Mg2H12S6(NO18)2,3.4359
mp-1181575,K3Na8FeH12S6(NO18)2,2.1401
mp-1224320,K3Na9Sr4(BO2)20,4.4938
mp-1203739,K3NaAl12Si12(HO6)8,4.803
mp-1211627,K3NaBe2F8,6.7376
mp-1181132,K3NaCe(CO5)3,0.012000000000000009
mp-1180870,K3NaCr2O8,3.0544
mp-23125,K3NaFeCl6,0.7837000000000001