task_id,pretty_formula,band_gap
mp-775227,Li4Fe5(CoO6)2,1.2717999999999998
mp-762798,Li4Fe5(NiO6)2,0.7066000000000003
mp-765710,Li4Fe5Ni(PO4)6,1.5656000000000003
mp-1177537,Li4Fe5NiO12,0.04939999999999989
mp-775677,Li4Fe5P6WO24,2.1269
mp-777213,Li4Fe5Sb(PO4)6,1.3064000000000004
mp-770140,Li4Fe5Sb3O16,0.9514000000000004
mp-1177408,Li4Fe5SbO12,0.9038000000000004
mp-1177452,Li4Fe7(OF7)2,2.9977
mp-762519,Li4Fe7(PO4)6,3.059400000000001
mp-763675,Li4Fe7O12,1.2685999999999995
mp-776005,Li4FeBi(TeO6)2,0.9091
mp-863882,Li4FeCo3(PO4)4,2.3296
mp-773339,Li4FeCo3O8,0.9078
mp-771206,Li4FeCo5O12,0.2810000000000001
mp-763028,Li4FeCo9O20,0.0242
mp-767739,Li4FeNi3(PO4)4,3.0109000000000004
mp-761358,Li4FeO3,2.4967
mp-780154,Li4FeO3F,2.7852
mp-769843,Li4FeO4,0.3040999999999999
mp-849664,Li4FeOF4,4.0680999999999985
mp-762999,Li4FeOF5,1.5509999999999995
mp-1177403,Li4FeP6(H4O11)2,3.9155
mp-1177405,Li4FeP6(HO2)12,3.986
mp-1177404,Li4FeS3,0.7102999999999997
mp-780741,Li4FeSb(TeO6)2,1.6130999999999998
mp-767012,Li4FeSb(WO6)2,2.01
mp-761968,Li4FeSi2O7,3.415
mp-556649,Li4Ga3Si3BrO12,3.9512
mp-554203,Li4Ga3Si3ClO12,4.4118
mp-557112,Li4Ga3Si3IO12,3.4396999999999998
mp-1222599,Li4Ga4P4O17F3,0.08709999999999997
mp-28623,Li4Ge5O12,2.9262000000000006
mp-28016,Li4Ge9O20,2.9382
mp-4558,Li4GeO4,4.0961
mp-30249,Li4GeS4,2.4834
mp-753690,Li4H3BrO3,4.4379
mp-643259,Li4H3ClO3,4.4775
mp-642996,Li4H6Os,2.6910000000000003
mp-642847,Li4H6Ru,2.388
mp-1237191,Li4H7RhS3O13,0.1661999999999999
mp-30228,Li4HN,1.9198
mp-756299,Li4HfO4,4.224
mp-530613,Li4Mg23B54,0.013700000000000044
mp-769946,Li4Mn(BO3)2,3.5788
mp-764786,Li4Mn(OF)2,2.7762
mp-782696,Li4Mn(PO3)6,4.5343
mp-761573,Li4Mn(PO4)2,4.0977
mp-849217,Li4Mn(SiO3)3,2.8622
mp-777779,Li4Mn(TeO4)3,0.4299999999999997
mp-775846,Li4Mn(WO4)3,1.9286000000000003
mp-698705,Li4Mn13O24,0.06389999999999985
mp-773944,Li4Mn2(PO4)3,0.2564
mp-777073,Li4Mn2C4SO16,0.7852
mp-770842,Li4Mn2Co3Sb3O16,0.2176
mp-767658,Li4Mn2Co3Te3O16,0.7525999999999997
mp-774397,Li4Mn2Co5O12,0.4716
mp-767785,Li4Mn2Cr3Sb3O16,0.3962000000000003
mp-775298,Li4Mn2Cr3Sn3O16,0.039899999999999824
mp-767650,Li4Mn2Fe(BO3)4,0.8523000000000001
mp-770860,Li4Mn2Fe3P6WO24,2.1268
mp-776752,Li4Mn2Fe3Sb(PO4)6,1.1098999999999997
mp-1177457,Li4Mn2Fe3Sn(PO4)6,1.9416
mp-1177473,Li4Mn2Fe3Sn3O16,0.3785000000000003
mp-775397,Li4Mn2Fe3Te3O16,0.8597999999999999
mp-775630,Li4Mn2Nb3Co3O16,0.5815999999999999
mp-868139,Li4Mn2Nb3Cr3O16,0.10729999999999996
mp-769626,Li4Mn2Nb3Fe3O16,0.19570000000000046
mp-776611,Li4Mn2NbNi3(PO4)6,0.4878999999999998
mp-1177518,Li4Mn2Ni3Sn(PO4)6,3.0877
mp-767009,Li4Mn2OF7,0.4249000000000001
mp-771909,Li4Mn2P4H3O16,0.5505
mp-761598,Li4Mn2Si3O10,3.0154000000000005
mp-762845,Li4Mn2Si4O13,1.3294
mp-768044,Li4Mn2TeWO12,1.1174999999999995
mp-773971,Li4Mn2V3Cr3O16,0.4346000000000001
mp-765660,Li4Mn2V3O12,0.7118
mp-777427,Li4Mn2V3Sn3O16,1.0476
mp-762560,Li4Mn2V5O12,1.2321000000000004
mp-770417,Li4Mn2VNi3(PO4)6,1.4053
mp-767639,Li4Mn3(BO3)4,0.6554000000000002
mp-767670,Li4Mn3(FeO5)2,0.4116
mp-762625,Li4Mn3(NiO4)3,0.29000000000000004
mp-768006,Li4Mn3(OF3)2,2.5187
mp-767111,Li4Mn3(OF3)3,0.8042
mp-762619,Li4Mn3(PO4)4,0.13809999999999967
mp-763667,Li4Mn3(SnO5)2,0.4567000000000006
mp-531376,Li4Mn3Cl10,1.2928000000000002
mp-762022,Li4Mn3Co(PO4)4,1.9345000000000003
mp-767132,Li4Mn3Co2Te3O16,0.16389999999999993
mp-771073,Li4Mn3Co3(CuO8)2,0.0918000000000001
mp-762156,Li4Mn3Co3(NiO8)2,0.8929999999999998
mp-763102,Li4Mn3Co3(SbO8)2,0.2503000000000002
mp-777041,Li4Mn3Co3(SnO8)2,0.28880000000000017
mp-775452,Li4Mn3Co3(WO8)2,0.3201999999999998
mp-769892,Li4Mn3Co5O16,0.19789999999999972
mp-1177395,Li4Mn3CoCu2(PO4)6,0.034399999999999764
mp-1174190,Li4Mn3CoO8,0.9434999999999998
mp-767307,Li4Mn3Cr(PO4)4,2.3950000000000005
mp-781676,Li4Mn3Cr2O10,0.2145999999999999
mp-764395,Li4Mn3Cr2Sb3O16,0.07420000000000028
mp-1177389,Li4Mn3Cr2Sn(PO4)6,1.9009000000000005
mp-775655,Li4Mn3Cr2Sn3O16,0.19809999999999967
mp-778285,Li4Mn3Cr3(CoO8)2,0.4669000000000003
mp-761449,Li4Mn3Cr3(FeO8)2,0.6196999999999999
mp-761445,Li4Mn3Cr3(NiO8)2,0.9221999999999996
mp-776744,Li4Mn3Cr3(SbO8)2,0.5144000000000002
mp-775610,Li4Mn3Cr3(TeO8)2,0.0484
mp-780214,Li4Mn3Cr3O12,0.5694999999999997
mp-771517,Li4Mn3Cr5O16,0.2403
mp-763479,Li4Mn3CrCo2(PO4)6,0.31820000000000004
mp-1177394,Li4Mn3CrO8,0.8530000000000002
mp-775508,Li4Mn3Cu2Sn3O16,0.10020000000000008
mp-775323,Li4Mn3CuNi2(PO4)6,0.028799999999999937
mp-762923,Li4Mn3F10,3.1353
mp-774081,Li4Mn3Fe(BO3)4,3.041300000000001
mp-850146,Li4Mn3Fe(PO4)4,3.5660000000000003
mp-775443,Li4Mn3Fe2Sb3O16,0.5445000000000002
mp-1177412,Li4Mn3Fe2Sn(PO4)6,2.004
mp-777053,Li4Mn3Fe2Sn3O16,0.5412999999999997
mp-1177464,Li4Mn3Fe3(PO4)6,0.42500000000000027
mp-775013,Li4Mn3Fe3(SbO8)2,0.5973000000000002
mp-761586,Li4Mn3Fe3(TeO8)2,0.12069999999999935
mp-773335,Li4Mn3FeO8,0.1513
mp-861478,Li4Mn3Nb(PO4)4,0.3258000000000001
mp-763519,Li4Mn3Nb2Co3O16,0.5063
mp-771688,Li4Mn3Nb2Cr3O16,0.6616
mp-771452,Li4Mn3Nb2Cu3O16,0.01819999999999977
mp-770941,Li4Mn3Nb2Fe3O16,0.7705000000000002
mp-762396,Li4Mn3Nb2Ni3O16,0.4386000000000001
mp-762659,Li4Mn3Nb2Sn3O16,0.9693000000000004
mp-775656,Li4Mn3Nb2V3O16,0.5272000000000001
mp-762415,Li4Mn3Nb3(FeO8)2,0.3426
mp-778817,Li4Mn3Nb3(TeO8)2,0.4788999999999994
mp-776566,Li4Mn3NbCr2(PO4)6,0.4400000000000004
mp-1177427,Li4Mn3NbFe2(PO4)6,0.5660999999999996
mp-770640,Li4Mn3NbV2(PO4)6,0.4759999999999995
mp-761673,Li4Mn3Ni(PO4)4,2.7518
mp-775346,Li4Mn3Ni2Sn3O16,1.0095
mp-778341,Li4Mn3Ni3(PO4)6,0.5587
mp-775399,Li4Mn3Ni3(SnO8)2,0.005700000000000038
mp-770951,Li4Mn3Ni3(TeO8)2,0.09860000000000024
mp-765303,Li4Mn3Ni3(WO8)2,0.5236000000000001
mp-765722,Li4Mn3NiO8,0.20429999999999995
mp-767143,Li4Mn3O5F3,0.7021999999999999
mp-1174296,Li4Mn3O7,0.9202
mp-780711,Li4Mn3O8,1.6716
mp-861557,Li4Mn3OF11,1.0928
mp-853249,Li4Mn3OF8,1.7754
mp-762779,Li4Mn3P3O12F,3.5760000000000005
mp-850373,Li4Mn3P4(HO8)2,3.5630999999999995
mp-767241,Li4Mn3Sb(PO4)4,0.2728000000000001
mp-767327,Li4Mn3Sn(PO4)4,3.2141
mp-775506,Li4Mn3Sn3(TeO8)2,0.4625999999999992
mp-773180,Li4Mn3Sn5O16,0.00480000000000036
mp-771849,Li4Mn3SnO8,0.3849
mp-761418,Li4Mn3V(PO4)4,2.4125
mp-766850,Li4Mn3V2Co3O16,0.0602999999999998
mp-1177396,Li4Mn3V2Cr(PO4)6,0.5233999999999996
mp-770036,Li4Mn3V2Cr3O16,0.6577999999999999
mp-764627,Li4Mn3V2Fe3O16,0.8076000000000003
mp-771520,Li4Mn3V2Ni3O16,0.7054
mp-775695,Li4Mn3V2Sb3O16,0.4661
mp-1177424,Li4Mn3V3(CuO8)2,0.18409999999999996
mp-1177360,Li4Mn3V3(FeO8)2,0.7747000000000002
mp-775398,Li4Mn3V3(NiO8)2,1.0071
mp-776978,Li4Mn3V3(SbO8)2,0.3523000000000001
mp-778280,Li4Mn3V3(SnO8)2,0.7739000000000003
mp-1177458,Li4Mn3V3(TeO8)2,0.3281999999999998
mp-763077,Li4Mn3V3(WO8)2,0.8083999999999998
mp-770524,Li4Mn3V3Cr2O16,0.3355000000000001
mp-773187,Li4Mn3V5O16,0.7982999999999998
mp-773363,Li4Mn3WO8,0.9333
mp-1177555,Li4Mn5(Fe2O9)2,0.08499999999999996
mp-762805,Li4Mn5(FeO6)2,0.9136000000000002
mp-762589,Li4Mn5(NiO6)2,0.6299999999999999
mp-540032,Li4Mn5(P3O11)2,3.1011999999999995
mp-765461,Li4Mn5Co(PO4)6,0.4293999999999998
mp-771545,Li4Mn5CoO12,0.8122000000000003
mp-763334,Li4Mn5Cr(PO4)6,0.2285999999999997
mp-850972,Li4Mn5Cr2O12,0.5724999999999998
mp-1177362,Li4Mn5Cu(PO4)6,0.18150000000000024
mp-769821,Li4Mn5CuO12,0.3304
mp-777439,Li4Mn5Fe(PO4)6,0.2601
mp-772481,Li4Mn5Fe3O16,0.17379999999999995
mp-868758,Li4Mn5Ni(PO4)6,0.4624999999999999
mp-773286,Li4Mn5NiO12,0.015400000000000082
mp-763777,Li4Mn5O10,0.4367999999999999
mp-691115,Li4Mn5O12,0.9998
mp-767113,Li4Mn5O9F,0.7694000000000001
mp-771110,Li4Mn5P6WO24,2.4972
mp-1177350,Li4Mn5Sb(PO4)6,0.01670000000000016
mp-853140,Li4Mn5Sn(PO4)6,2.0280000000000005
mp-769798,Li4Mn5SnO12,0.0013000000000000787
mp-778320,Li4Mn5V(PO4)6,0.08599999999999985
mp-773194,Li4Mn5V3O16,0.6164999999999998
mp-763819,Li4Mn7(OF7)2,1.7582000000000002
mp-850145,Li4Mn7(PO4)6,2.9773
mp-762419,Li4Mn7O12,0.2589999999999999
mp-763380,Li4Mn7O16,1.0474
mp-767099,Li4Mn7O9F7,0.4359
mp-766808,Li4Mn8O13F3,0.3639999999999999
mp-767621,Li4Mn8O9F7,0.4843
mp-1222620,Li4MnCo2NiO8,0.7608999999999999
mp-1174786,Li4MnCo2O7,0.5804999999999998
mp-767249,Li4MnCo3(PO4)4,2.3728
mp-1174071,Li4MnCo3O8,0.7337000000000002
mp-1177382,Li4MnCo5O12,0.7336999999999998
mp-761370,Li4MnCr(WO6)2,0.6985999999999999
mp-779026,Li4MnCr2Fe3(PO4)6,1.1417000000000002
mp-768041,Li4MnCr3(PO4)4,1.9098
mp-771203,Li4MnCr3O8,0.6756000000000002
mp-771221,Li4MnCr5O12,0.07279999999999998
mp-770106,Li4MnCrO6,0.9946000000000002
mp-850929,Li4MnF6,4.9148
mp-777717,Li4MnF7,1.9009
mp-766801,Li4MnF8,2.2371
mp-767642,Li4MnFe2(BO3)4,1.9108000000000005
mp-1177332,Li4MnFe3(BO3)4,3.2416
mp-767478,Li4MnFe3(PO4)4,3.8727
mp-763910,Li4MnFe3O8,1.0999000000000003
mp-771089,Li4MnFe5O12,0.26380000000000003
mp-1192995,Li4MnGe2S7,1.4474
mp-778774,Li4MnH6(S2O9)2,4.5112
mp-771868,Li4MnNb(WO6)2,0.4554
mp-771475,Li4MnNb2WO12,1.2585
mp-767260,Li4MnNi3(PO4)4,2.9959
mp-1177336,Li4MnNi5(PO4)6,0.42500000000000027
mp-779228,Li4MnNi5O12,0.4611000000000001
mp-766927,Li4MnO2F3,2.1618
mp-770099,Li4MnO3,1.2564000000000002
mp-767173,Li4MnO3F,1.0372
mp-765757,Li4MnOF4,2.4416
mp-765201,Li4MnOF5,0.5609
mp-761599,Li4MnP2O9,1.4716000000000002
mp-780144,Li4MnP6(H4O11)2,4.2129
mp-779994,Li4MnSb(WO6)2,0.2765
mp-763536,Li4MnSb2WO12,1.1039000000000003
mp-761311,Li4MnSi2O7,3.653
mp-775961,Li4MnSn(WO6)2,1.0090000000000003
mp-1192737,Li4MnSn2Se7,1.0585
mp-772661,Li4MnSn3(PO4)4,2.9147
mp-770137,Li4MnV(PO4)3,2.0224
mp-761440,Li4MnV(WO6)2,0.7945000000000002
mp-773239,Li4MnV2WO12,1.1428000000000005
mp-778342,Li4MnV3(P2O7)4,0.4191999999999998
mp-761410,Li4MnV3(PO4)4,2.500900000000001
mp-771802,Li4MnV3O12,0.3197000000000001
mp-763955,Li4MnV3O8,0.6019000000000001
mp-690551,Li4Mo3O8,1.8220000000000005
mp-562247,Li4Mo5O17,3.0662
mp-699343,Li4MoO5,2.8721
mp-540075,Li4MoP2O9,1.6212000000000002
mp-29149,Li4NCl,1.7617
mp-863382,Li4Nb(P2O7)2,0.8900000000000006
mp-771059,Li4Nb2Co3Sn3O16,1.6597999999999995
mp-766632,Li4Nb2Cr3Co3O16,0.7717999999999998
mp-772123,Li4Nb2Cr3Fe3O16,1.7983000000000002
mp-763084,Li4Nb2Fe3Co3O16,0.835
mp-769502,Li4Nb2Fe3O10,2.0898000000000003
mp-770744,Li4Nb2Fe3Sn3O16,1.5534
mp-765556,Li4Nb2Fe3Te3O16,2.1159000000000003
mp-763981,Li4Nb2Ni3Sn3O16,2.0723
mp-775090,Li4Nb2V3Co3O16,1.4670999999999998
mp-770954,Li4Nb2V3Cr3O16,1.2736
mp-762676,Li4Nb2V3Fe3O16,1.4886999999999997
mp-777087,Li4Nb2V3Ni3O16,1.589
mp-776854,Li4Nb3Co3(SnO8)2,0.5170999999999997
mp-775693,Li4Nb3Co3(TeO8)2,0.7834999999999996
mp-765948,Li4Nb3Cr2Fe3O16,0.16690000000000005
mp-1177319,Li4Nb3Cr3(NiO8)2,0.4327000000000001
mp-771728,Li4Nb3Cr5O16,0.20429999999999995
mp-775145,Li4Nb3Cu3(SnO8)2,0.0215999999999994
mp-764250,Li4Nb3Fe2Ni3O16,0.4647999999999999
mp-775068,Li4Nb3Fe3(NiO8)2,0.5108000000000001
mp-868012,Li4Nb3Fe3(SbO8)2,1.0902999999999996
mp-1177354,Li4Nb3Fe3(SnO8)2,0.2355999999999998
mp-779209,Li4Nb3Fe3(TeO8)2,0.5055999999999994
mp-770110,Li4Nb3Fe5O16,1.1016999999999997
mp-1177341,Li4Nb3Ni3(SnO8)2,0.2839999999999998
mp-775754,Li4Nb3V2Co3O16,0.4493999999999998
mp-776847,Li4Nb3V2Fe3O16,0.3917999999999999
mp-1177484,Li4Nb3V2Ni3O16,0.4457
mp-1177356,Li4Nb3V3(FeO8)2,0.2301000000000002
mp-776001,Li4Nb3V3(SbO8)2,0.2584999999999997
mp-767976,Li4Nb3V3(SnO8)2,0.12340000000000018
mp-761458,Li4Nb3V3Cr2O16,0.2030999999999996
mp-772554,Li4Nb3V5O16,0.20040000000000013
mp-771179,Li4Nb5Cr3O16,0.04290000000000038
mp-770888,Li4Nb5V3O16,0.13159999999999972
mp-1177461,Li4NbCo3O8,0.7717999999999998
mp-1177314,Li4NbCr(TeO6)2,1.4996999999999998
mp-769739,Li4NbCr(WO6)2,1.8451
mp-771765,Li4NbCr5O12,0.9773
mp-776914,Li4NbFe(TeO6)2,1.7473999999999998
mp-850102,Li4NbFe(WO6)2,2.2989999999999995
mp-777855,Li4NbFe3Cu2(PO4)6,0.1402000000000001
mp-770958,Li4NbFe3O8,0.7286999999999999
mp-1177337,Li4NbFe5(PO4)6,0.5099999999999998
mp-772594,Li4NbFe5O12,0.53
mp-781789,Li4NbIn3(PO4)6,2.6893
mp-1177323,Li4NbV3Cr2(PO4)6,0.29280000000000017
mp-677490,Li4Nd3SbTeO12,2.9443
mp-777085,Li4Ni(BO3)2,3.4657
mp-861126,Li4Ni(PO3)6,3.8621
mp-32320,Li4Ni(PO4)2,3.5202
mp-764696,Li4Ni2OF7,0.6706000000000001
mp-765506,Li4Ni3(OF3)2,3.5404
mp-762617,Li4Ni3(SnO5)2,0.03750000000000009
mp-765870,Li4Ni3O3F4,2.1682
mp-540518,Li4Ni3P4O15,3.7007
mp-1177310,Li4Ni3Sb(PO4)4,0.7210000000000001
mp-765811,Li4Ni3Sn(PO4)4,1.9586999999999997
mp-777462,Li4Ni3Sn3(SbO8)2,0.7191999999999998
mp-770127,Li4Ni3Sn5O16,0.2622
mp-773284,Li4Ni3TeO8,0.6478999999999999
mp-770966,Li4Ni3WO8,2.0751
mp-504233,Li4Ni5(P3O11)2,3.2739
mp-762776,Li4Ni5Sn(PO4)6,3.0677000000000003
mp-770970,Li4Ni5SnO12,0.5036999999999998
mp-775640,Li4Ni5Te(PO4)6,2.9442000000000004
mp-859156,Li4Ni7(OF7)2,2.7778
mp-32384,Li4Ni7(PO4)6,3.512
mp-997521,Li4Ni7O12,0.026499999999999968
mp-764792,Li4Ni8O9F7,0.1059000000000001
mp-765887,Li4NiOF4,1.8989000000000005
mp-776804,Li4NiSn3(PO4)4,2.1562
mp-9159,Li4NpO5,0.5886000000000005
mp-554577,Li4P2O7,5.6507999999999985
mp-1181255,Li4P4O17,0.8478
mp-765567,Li4P5HO15,5.6948
mp-22170,Li4PbO4,1.4367
mp-1181012,Li4Re6S11,1.725
mp-776021,Li4Sb(TeO4)3,0.04330000000000034
mp-775852,Li4Sb2C4SO16,2.5506
mp-769122,Li4Sb2H6O3F10,4.6480000000000015
mp-1222563,Li4Sc3In(SiO3)8,4.7378
mp-767448,Li4ScFe3(SiO3)8,2.7686
mp-1222575,Li4ScIn3(SiO3)8,3.9074
mp-4426,Li4SeO5,2.4442
mp-767687,Li4Si2NiO7,3.4342
mp-766991,Li4Si3(NiO5)2,3.5327999999999995
mp-767900,Li4Si3NiO9,3.9817
mp-756672,Li4Si4Bi2O13,3.8328
mp-1222533,Li4SiGe3O10,3.5795000000000003
mp-11737,Li4SiO4,4.7841000000000005
mp-756045,Li4Sn(BO3)2,2.5108
mp-673092,Li4Sn(PO3)6,4.4967
mp-774623,Li4Sn(PO4)2,3.1841000000000004
mp-777312,Li4Sn2P4H3O16,0.27059999999999995
mp-1195718,Li4SnS4,2.3476
mp-1194700,Li4SnSe4,1.6505999999999998
mp-30129,Li4TaN3,2.6752
mp-4804,Li4TeO5,2.8137
mp-1177301,Li4Ti(Co4O9)2,0.14959999999999996
mp-850190,Li4Ti(TeO4)3,1.6475
mp-766548,Li4Ti11O24,2.5241
mp-759678,Li4Ti15O32,1.9439
mp-775264,Li4Ti2Co3O10,0.6943000000000001
mp-775657,Li4Ti2Co3Sn3O16,0.7030000000000003
mp-770552,Li4Ti2Cr3Ni3O16,0.3219999999999996
mp-762758,Li4Ti2Fe3O10,1.4488
mp-775705,Li4Ti2Fe3Sn3O16,1.3977
mp-776197,Li4Ti2Fe4(CoO6)3,0.22089999999999987
mp-762689,Li4Ti2Fe5O12,1.5030000000000006
mp-769444,Li4Ti2Mn3(Fe2O9)2,0.9875000000000004
mp-861729,Li4Ti2Mn3Co3O16,0.2795000000000001
mp-770152,Li4Ti2Mn3Cr3O16,0.6166999999999998
mp-770495,Li4Ti2Mn3Fe3O16,0.6628000000000003
mp-767719,Li4Ti2Mn3Ni3O16,0.014699999999999937
mp-766150,Li4Ti2Mn3O10,0.4941
mp-770623,Li4Ti2Mn3V3O16,0.44769999999999976
mp-762814,Li4Ti2Mn5O12,0.41339999999999977
mp-767657,Li4Ti2Nb3Co3O16,0.7981000000000003
mp-762474,Li4Ti2Nb3Fe3O16,0.41990000000000016
mp-761978,Li4Ti2Nb3V3O16,0.2107000000000001
mp-762924,Li4Ti2Ni3O10,0.02389999999999981
mp-767100,Li4Ti2Ni3Sn3O16,0.2176
mp-762815,Li4Ti2Ni5O12,0.2096
mp-765243,Li4Ti2Si4O13,0.1615000000000002
mp-771064,Li4Ti2V3(Fe2O9)2,1.5642
mp-761998,Li4Ti2V3Co3O16,1.3842000000000003
mp-773563,Li4Ti2V3Cr3O16,0.9932
mp-775447,Li4Ti2V3Cr4O18,1.5306000000000002
mp-776663,Li4Ti2V3Fe3O16,0.8033000000000001
mp-770247,Li4Ti2V3Ni3O16,1.3155
mp-762546,Li4Ti2V3O10,0.6295999999999999
mp-763676,Li4Ti2V5O12,0.2690000000000001
mp-769491,Li4Ti2V7O18,0.009399999999999851
mp-780162,Li4Ti3(CoO4)3,0.5826000000000002
mp-762695,Li4Ti3(FeO4)3,0.06979999999999986
mp-762556,Li4Ti3(NiO4)3,0.05080000000000018
mp-776866,Li4Ti3Co2Sn3O16,1.6612000000000005
mp-763517,Li4Ti3Co3(NiO8)2,0.7469000000000001
mp-773988,Li4Ti3Co3(SbO8)2,0.6356999999999999
mp-777668,Li4Ti3Co3(SnO8)2,0.2580999999999998
mp-765522,Li4Ti3Co3(TeO8)2,1.1119
mp-780139,Li4Ti3Co3(WO8)2,0.0398000000000005
mp-771756,Li4Ti3Co5O16,0.3207
mp-769725,Li4Ti3Cr3(CoO8)2,0.5375000000000001
mp-776639,Li4Ti3Cr3(FeO8)2,0.7337000000000002
mp-782652,Li4Ti3Cr3(NiO8)2,0.9183
mp-765754,Li4Ti3Cr3(TeO8)2,0.3173000000000004
mp-771516,Li4Ti3Cr5O16,0.16530000000000022
mp-763107,Li4Ti3Fe2Co3O16,0.1442000000000001
mp-778363,Li4Ti3Fe2Sn3O16,1.2871
mp-851004,Li4Ti3Fe3(NiO8)2,0.01529999999999987
mp-865132,Li4Ti3Fe3(SbO8)2,0.1629000000000005
mp-1177297,Li4Ti3Fe3(SnO8)2,1.0311000000000003
mp-762517,Li4Ti3Fe3(TeO8)2,1.1232999999999995
mp-775133,Li4Ti3Fe3(WO8)2,0.9939
mp-1177270,Li4Ti3Mn2(Fe2O9)2,1.056
mp-763307,Li4Ti3Mn2Co3O16,0.234
mp-778223,Li4Ti3Mn2Cr3O16,0.4196
mp-770371,Li4Ti3Mn2Fe3O16,0.6458000000000004
mp-771397,Li4Ti3Mn2Ni3O16,0.02629999999999999
mp-776194,Li4Ti3Mn2Sn3O16,1.348
mp-773707,Li4Ti3Mn2V3O16,0.9531
mp-770518,Li4Ti3Mn3(CoO8)2,0.7553000000000001
mp-781494,Li4Ti3Mn3(CuO8)2,0.09759999999999992
mp-770508,Li4Ti3Mn3(FeO8)2,0.4335
mp-770507,Li4Ti3Mn3(NiO8)2,1.1058
mp-763587,Li4Ti3Mn3(SbO8)2,0.02510000000000012
mp-1177280,Li4Ti3Mn3(SnO8)2,0.31510000000000016
mp-762234,Li4Ti3Mn3(TeO8)2,0.2450999999999999
mp-772490,Li4Ti3Mn3(WO8)2,0.5023999999999997
mp-771394,Li4Ti3Mn3Cr2O16,0.07730000000000015
mp-776061,Li4Ti3Mn3Nb2O16,1.0360999999999998
mp-775615,Li4Ti3Mn4(CoO9)2,0.6986999999999997
mp-775551,Li4Ti3Mn4(FeO9)2,0.7115
mp-768100,Li4Ti3Mn4Cr2O18,0.4306999999999999
mp-773545,Li4Ti3Mn5O16,0.2923
mp-769513,Li4Ti3Mn6O18,0.5859000000000001
mp-776800,Li4Ti3Nb2Co3O16,1.4451
mp-775999,Li4Ti3Nb2Fe3O16,1.5704000000000002
mp-771559,Li4Ti3Nb2Ni3O16,1.8728
mp-767702,Li4Ti3Ni2Sn3O16,2.1122000000000005
mp-775755,Li4Ti3Ni3(SbO8)2,1.0106000000000002
mp-851029,Li4Ti3Ni3(SnO8)2,0.5354999999999999
mp-763178,Li4Ti3Ni3(TeO8)2,1.3917000000000002
mp-769613,Li4Ti3Ni3(WO8)2,1.084
mp-755266,Li4Ti3O8,2.1569000000000003
mp-754822,Li4Ti3Sn5O16,0.5792999999999999
mp-770942,Li4Ti3V2(Fe2O9)2,1.5189999999999997
mp-780134,Li4Ti3V2Cr3O16,1.1816999999999998
mp-776745,Li4Ti3V2Cr4O18,1.5461
mp-849709,Li4Ti3V2Cu3O16,0.054999999999999716
mp-777204,Li4Ti3V2Ni3O16,1.6363000000000003
mp-777010,Li4Ti3V3(CoO8)2,1.202
mp-777012,Li4Ti3V3(CuO8)2,0.2677999999999998
mp-773674,Li4Ti3V3(FeO8)2,1.1950000000000005
mp-1177257,Li4Ti3V3(NiO8)2,1.1818
mp-762067,Li4Ti3V3(SbO8)2,1.0980000000000003
mp-780025,Li4Ti3V3(SnO8)2,0.5294999999999996
mp-780810,Li4Ti3V3(TeO8)2,0.6124999999999998
mp-770235,Li4Ti3V3(WO8)2,0.13140000000000018
mp-773936,Li4Ti3V3Cr2O16,0.8841999999999999
mp-775504,Li4Ti3V4Cr2O18,0.31820000000000004
mp-777694,Li4Ti3V5O16,1.0774999999999997
mp-1177271,Li4Ti3V6O18,0.9651
mp-769457,Li4Ti4Cr(Fe2O9)2,0.6461999999999999
mp-1177296,Li4Ti4Fe5O18,0.17710000000000026
mp-769441,Li4Ti4Mn(Co2O9)2,0.11970000000000035
mp-769443,Li4Ti4Mn(Fe2O9)2,1.0258000000000005
mp-769448,Li4Ti4Mn4NiO18,0.9712
mp-767926,Li4Ti4Mn4VO18,0.8483
mp-769512,Li4Ti4Mn5O18,0.6931999999999996
mp-769442,Li4Ti4MnCr4O18,0.7307999999999999
mp-769453,Li4Ti4V(Fe2O9)2,1.6191999999999998
mp-769478,Li4Ti4V4CoO18,1.0827
mp-769451,Li4Ti4V4NiO18,1.1804000000000006
mp-769487,Li4Ti4V5O18,0.9893
mp-775391,Li4Ti4VCr4O18,1.4674
mp-1177251,Li4Ti5Co3O16,0.8210999999999999
mp-777591,Li4Ti5Fe3O16,1.1951999999999998
mp-777417,Li4Ti5Mn3O16,0.39970000000000017
mp-767917,Li4Ti5Mn4O18,0.9356
mp-771465,Li4Ti5Ni3O16,0.3708
mp-685194,Li4Ti5O12,2.6703
mp-766597,Li4Ti5S12,1.0319000000000005
mp-774230,Li4Ti5V3O16,0.6295000000000002
mp-531820,Li4Ti7O16,2.8296
mp-772090,Li4Ti9O20,3.1247
mp-778251,Li4TiCo2Ni3(PO4)6,2.3268
mp-770897,Li4TiCo3O8,1.0356999999999998
mp-1177293,Li4TiCr2Ni3(PO4)6,1.3600000000000003
mp-765301,Li4TiCr5O12,0.12849999999999984
mp-771228,Li4TiCrO6,1.2269
mp-776613,Li4TiCu2Ni3(PO4)6,0.12159999999999993
mp-1177299,Li4TiFe2Ni3(PO4)6,2.3667000000000007
mp-778677,Li4TiFe3Cu2(PO4)6,0.20409999999999995
mp-769962,Li4TiFe3O8,0.6277000000000004
mp-1177317,Li4TiFe3Sn2(PO4)6,1.3767
mp-770656,Li4TiFe5O12,0.3354999999999999
mp-770980,Li4TiMn(WO6)2,1.1055
mp-776756,Li4TiMn2Ni3(PO4)6,2.2646
mp-778261,Li4TiMn3Cr2(PO4)6,1.1456
mp-764078,Li4TiMn3O8,0.4678
mp-769429,Li4TiMn4(Fe2O9)2,0.4329000000000001
mp-770920,Li4TiMn5O12,0.03560000000000008
mp-778249,Li4TiNi3Sn2(PO4)6,2.3187
mp-770943,Li4TiNi5(PO4)6,2.3246
mp-9172,Li4TiO4,4.5573
mp-766540,Li4TiS4,2.3658
mp-773465,Li4TiV3O10,1.2386999999999997
mp-764005,Li4TiV3O8,0.5875000000000004
mp-1177277,Li4TiV4(Fe2O9)2,1.0116999999999998
mp-767927,Li4TiV4Cr4O18,1.318
mp-776628,Li4TiV5O12,0.2466999999999997
mp-935267,Li4UC3O11,2.2974
mp-14169,Li4UF8,0.3374000000000001
mp-7714,Li4UO5,2.0777
mp-778789,Li4V(BO3)2,2.7351
mp-762975,Li4V(CO3)4,1.2907
mp-763530,Li4V(PO3)6,3.0291
mp-761335,Li4V(PO4)2,2.6181
mp-779999,Li4V(TeO4)3,0.9344
mp-762381,Li4V11O22,0.8645999999999998
mp-777185,Li4V2(PO4)3,0.5211999999999999
mp-770256,Li4V2(SiO4)3,1.6149