task_id,pretty_formula,band_gap
mp-704755,Fe3PWC15BrO15,0.2532
mp-1212776,Fe3Pb4BrO8,1.2027
mp-630866,Fe3Pb4ClO8,1.0374
mp-1213069,Fe3Pb5F19,2.978
mp-735822,Fe3Pb8F24,1.6795999999999998
mp-21515,Fe3S4,0.003499999999999837
mp-1194355,Fe3Sb2(BrO)4,2.4346
mp-1199909,Fe3Sb5(IO3)3,2.5056
mp-1201589,Fe3Se3O10,0.3601000000000001
mp-578775,Fe3SiP5O19,1.6748
mp-652337,Fe3Te2(CO)9,1.7140999999999995
mp-1200464,Fe3Te3ClO10,1.9869000000000003
mp-1213327,Fe3TeC9SO9,0.679
mp-650029,Fe3WC14(SO7)2,1.5415
mp-1225899,Fe4(AsO7)3,0.8942999999999999
mp-578661,Fe4(P2O7)3,2.3761
mp-31780,Fe4(PO4)3,1.4408000000000003
mp-705779,Fe43O64,0.7730999999999999
mp-1213409,Fe4AgP(XeF3)2,0.06509999999999994
mp-735662,Fe4As10PbO22,1.7469
mp-31803,Fe4As2O11,1.6268000000000002
mp-505012,Fe4As5O13,1.6975
mp-540741,Fe4Bi2O9,1.8957
mp-706459,Fe4C14O13,1.2664
mp-1225360,Fe4Co(BiO3)5,1.1013999999999995
mp-540724,Fe4Cu2S7,0.09990000000000032
mp-1225235,Fe4CuNiO8,0.1891999999999996
mp-649805,Fe4Ge(CO)16,2.4775
mp-1201928,Fe4H12C15O31,0.05000000000000005
mp-626855,Fe4H14O13,1.8694
mp-24987,Fe4Ni3(PO4)6,2.0853
mp-764829,Fe4O3F5,1.3449999999999998
mp-1188678,Fe4O5,0.9972999999999992
mp-763010,Fe4O5F3,0.09339999999999993
mp-766996,Fe4OF6,2.3076
mp-763020,Fe4OF7,1.9278
mp-774992,Fe4OF8,1.5444
mp-637226,Fe4P2O9,2.8438000000000003
mp-25756,Fe4P3(HO5)3,2.0256
mp-652092,Fe4Pb(CO)16,2.1198
mp-653596,Fe4Si(CO)16,2.6164
mp-1225529,Fe4SiO9,0.011300000000000004
mp-706411,Fe4Sn(CO)16,2.4478
mp-624762,Fe4Te2(CO)11,0.1818
mp-683793,Fe4Te2MoC14(SO7)2,1.7006
mp-1213223,Fe5(GeO4)3,1.4697999999999998
mp-762900,Fe5(OF2)4,0.3751
mp-779794,Fe5(OF4)2,1.2575999999999998
mp-540432,Fe5(PO4)4,0.5726
mp-1198345,Fe5(SiO4)3,1.7819999999999998
mp-1225422,Fe5Bi4O13F,2.0619999999999994
mp-770879,Fe5Co(PO4)6,1.4463
mp-771903,Fe5Cu(PO4)6,0.5262
mp-566675,Fe5Cu2(PO4)6,0.4139999999999997
mp-33300,Fe5CuO8,0.15280000000000005
mp-1193306,Fe5HO8,1.6894999999999998
mp-1225019,Fe5NiO8,0.008600000000000385
mp-781375,Fe5O3F7,1.2456
mp-1178251,Fe5OF11,1.0570000000000002
mp-763767,Fe5P3O13,1.4787
mp-744239,Fe5P4(H3O10)2,1.4431000000000005
mp-851003,Fe5P6WO24,2.3386
mp-772375,Fe5Sb(PO4)6,2.1937999999999995
mp-705744,Fe5SiO8,1.2772
mp-772585,Fe5Sn(PO4)6,1.2554999999999998
mp-690495,Fe5SnO8,1.0352000000000006
mp-771352,Fe5Te(PO4)6,0.7252000000000001
mp-645953,Fe5Te6(ClO9)2,0.027499999999999858
mp-1225209,Fe6BMo6C,0.02910000000000057
mp-653817,Fe6Ge2(CO)23,2.1941
mp-743742,Fe6H12Pb(SO7)4,1.2239
mp-530925,Fe6Ni9S20,0.0032000000000005357
mp-1178314,Fe6O5F7,1.3376
mp-849235,Fe6OF11,1.5156
mp-744374,Fe6P4H17O27,1.5183000000000002
mp-1213654,Fe6P4H23O21,1.3584
mp-1201833,Fe6Pb(SO7)4,0.037300000000000035
mp-653267,Fe6Sn2(CO)23,2.1295
mp-542660,Fe7(AsO4)6,1.5249
mp-1225378,Fe7(CoO6)2,0.4803000000000002
mp-850113,Fe7(Ni3O8)2,0.9307
mp-781010,Fe7(OF3)3,1.931
mp-777905,Fe7(OF7)2,1.039
mp-650224,Fe7(P2O7)4,1.0213
mp-542523,Fe7(PO4)6,1.4674000000000005
mp-1178257,Fe7(PO4)8,0.0181
mp-690584,Fe7(PO5)4,1.4438
mp-1212736,Fe7(SiO3)8,0.32310000000000016
mp-1197365,Fe7(SiO4)4,1.6642
mp-763339,Fe7(SiO6)2,1.1102000000000003
mp-774072,Fe7O3F13,0.943
mp-715333,Fe7O8,1.0723000000000005
mp-705558,Fe7O9,1.1386999999999998
mp-25763,Fe7P6(HO6)4,3.1224
mp-1195901,Fe7Pb7F34,1.6450999999999998
mp-684707,Fe7S12,0.1678999999999995
mp-1203691,Fe7Sb10(Br4O9)2,2.4311000000000003
mp-1201515,Fe7Sb10(Cl4O9)2,2.3472
mp-1225755,Fe7Si3(H4O9)2,1.2864
mp-1225100,Fe7SiO10,0.7177000000000007
mp-777003,Fe7Te(PO4)12,0.004299999999999997
mp-1182707,Fe8H10O17,1.3409
mp-763787,Fe8O9,1.4134000000000002
mp-763415,Fe8SiO12,0.44540000000000013
mp-704206,Fe9(PO4)8,1.6058
mp-763441,Fe9O10,1.6011999999999995
mp-1212730,FeAg(MoO4)2,1.4817999999999998
mp-704626,FeAg(SeO3)2,1.9070000000000005
mp-1225099,FeAg2Sn3S8,0.7314999999999996
mp-1205948,FeAg3F6,1.7919999999999998
mp-1181427,FeAgAs(S2N3)2,0.08779999999999999
mp-1212706,FeAgBr4,0.5914
mp-19225,FeAgO2,1.1341
mp-1202376,FeAgP2O7,1.8365
mp-1203347,FeAs(H2O3)2,2.8454
mp-2008,FeAs2,0.2801999999999998
mp-1200684,FeAs2PbO8,0.09939999999999972
mp-1204738,FeAs2S4(O2F3)4,2.362
mp-559585,FeAs4F18,3.0699
mp-1200003,FeAsNO4F,0.5875999999999999
mp-19398,FeAsO4,2.083
mp-1196271,FeAsO6,1.8693
mp-996994,FeAuO2,0.6094000000000004
mp-758974,FeB18H32(C4S)2,2.0283
mp-1226982,FeB18H42C8(SN)2,0.1689
mp-567042,FeB2C6(O3F4)2,4.5385
mp-1202257,FeB2P2(HO4)3,2.7279
mp-1191380,FeB4O7,3.915499999999999
mp-1196576,FeB6(CO)4,1.5423
mp-631397,FeBN3O3F4,1.3388
mp-19097,FeBO3,1.6988999999999996
mp-1213675,FeBP(HO3)2,4.0082
mp-766957,FeBP2H5NO9,2.8005
mp-1213402,FeBP2O11,0.0972
mp-1197024,FeBi(SeO3)3,2.617
mp-761437,FeBi25O39,2.2279
mp-1192577,FeBi2Se2Cl3O7,2.0272
mp-565513,FeBi3(MoO6)2,2.5911
mp-1095303,FeBi4S7,0.2754000000000003
mp-1212910,FeBi6P2(O7F)2,1.9483
mp-1181645,FeBiC6(N3O2)2,1.6229000000000002
mp-24932,FeBiO3,1.9066
mp-1078379,FeBiS2Br,0.16750000000000045
mp-601716,FeBiSbS4,0.16389999999999993
mp-22880,FeBr2,0.5376999999999998
mp-1202060,FeC3NCl3O2,1.4857999999999998
mp-636243,FeC3SO3,0.33940000000000003
mp-616539,FeC3SeO3,0.2956
mp-1195386,FeC4N2O9,0.4402
mp-1238261,FeC4S2N3O5,0.33609999999999984
mp-1202981,FeC7(O2F)2,2.4769
mp-1178258,FeCSO7,0.8479000000000001
mp-23229,FeCl2,0.035699999999999836
mp-583463,FeCl3,0.4308
mp-1225059,FeCl4,0.30820000000000003
mp-1207367,FeCl6,0.12490000000000025
mp-552787,FeClO,1.9415
mp-1225028,FeCo(BiO3)2,0.5789
mp-775299,FeCo(PO4)2,0.6879
mp-1203720,FeCo2BO5,1.3538
mp-772363,FeCo3(PO4)4,0.5962999999999998
mp-771048,FeCo9O20,0.3526
mp-540710,FeCoBO4,1.4346
mp-505732,FeCoH18(CN2)6,2.287
mp-24447,FeCoH18(NCl)6,0.8114
mp-705338,FeCoPO4F,0.0838000000000001
mp-548505,FeCoPO5,1.7627000000000002
mp-1225359,FeCu2BO5,0.2710999999999997
mp-40573,FeCu2H21(O5F4)2,0.4897
mp-1188558,FeCu2SiS4,0.09519999999999927
mp-1225180,FeCu2Sn3S8,0.6175999999999995
mp-1104343,FeCuAs2PbO10,0.017500000000000068
mp-510281,FeCuO2,0.8043999999999998
mp-542159,FeCuPO5,0.21469999999999967
mp-1095874,FeCuRh2,0.06479999999999997
mp-556911,FeF2,3.2415
mp-556197,FeF3,3.1061
mvc-13960,FeF4,1.6229
mp-736330,FeGe4H24C8(S5N)2,0.2570999999999999
mp-25522,FeGeO3,1.274
mp-849987,FeH10N2Cl5O,2.1988
mp-1238696,FeH10S2(NO2)4,4.3326
mp-1205475,FeH10S2NO11,2.4164000000000003
mp-744042,FeH12(NF2)3,4.1708
mp-770576,FeH12(SO7)2,0.026600000000000183
mp-1194613,FeH12C2(NCl2)2,0.07709999999999995
mp-565741,FeH12C2N2F5,3.5842
mp-743577,FeH12C2S2(O2F)6,4.0772
mp-603940,FeH12C4NCl4,1.4414
mp-1203520,FeH12C5NCl2O5,2.4343
mp-1197408,FeH12C6N(ClO2)2,2.4568
mp-542912,FeH12Pt(ClO)6,1.5113
mp-600524,FeH14C3Br3NO2,3.7997
mp-566219,FeH14C4NOF4,3.8233
mp-1198559,FeH14SO11,3.6555
mp-709074,FeH16C4(NCl2)2,0.001100000000000101
mp-723036,FeH16C4S4(N4Cl)2,0.3153999999999999
mp-1198586,FeH18C3(N3F2)3,3.0071000000000003
mp-1213612,FeH18C6N6O13,3.3079
mp-1212734,FeH2(CO2)2,0.2451
mp-1203662,FeH2(CO3)2,0.18480000000000008
mp-1194614,FeH20C8NCl4,1.5902
mp-721635,FeH20S2(NO7)2,3.7756
mp-1200723,FeH24C2S2(N3O7)2,4.0381
mp-600165,FeH24C8(NCl2)2,0.0138999999999998
mp-1182106,FeH2Cl5O3,2.011
mp-643564,FeH2SO5,4.1317
mp-1182632,FeH36C12S6(BrO2)3,1.4727
mp-1201095,FeH4(CN)6,4.2614
mp-743926,FeH4(CO3)2,2.5092
mp-504883,FeH4(ClO)2,4.1399
mp-772432,FeH4(SO5)2,0.07240000000000002
mp-566863,FeH44C12(N5O8)2,2.4142
mp-567010,FeH4C3O5,2.6387
mp-1194642,FeH4C3O8,1.8406
mp-703668,FeH4S2NO8,2.3185
mp-1213353,FeH4SO4,3.7358
mp-1190513,FeH5CN(ClO)2,3.7158
mp-542787,FeH6(CO3)2,3.3193
mp-744930,FeH6SO6,1.4491
mp-1203197,FeH7C3NO6,3.5796
mp-25531,FeH8(BrO2)2,3.7192
mp-744948,FeH8(ClO2)2,3.8562
mp-540639,FeH8C4(S2N3)2,0.5768
mp-1181422,FeH8N2F5,1.4053
mp-1199758,FeH8N3O13,2.3097
mp-1195843,FeH8SO8,3.8605
mp-1196345,FeH9(NF)3,3.0355
mp-1225460,FeH9(SO6)2,2.503
mp-542702,FeH9C3N7O2,3.2024
mp-600433,FeHC2O3,1.8731
mp-626102,FeHO2,1.934
mp-1198947,FeHg2C6S2(NO2)2,0.5215000000000001
mp-1188386,FeHgO2F5,0.02629999999999999
mp-1197393,FeI(NO)2,1.3767
mp-1225102,FeMo2H7O11,2.5547
mp-24968,FeMoClO4,2.2059
mp-1202896,FeMoHSeO7,2.2563
mp-541843,FeMoO4,2.3256
mp-1201709,FeN2Cl5O,0.20509999999999995
mp-566054,FeN3ClO3,0.5022
mp-1225067,FeNi(PS3)2,0.040399999999999985
mp-21498,FeNi2(CN)6,0.1678
mp-1212687,FeNiAg2F7,1.2251
mp-542158,FeNiPO5,1.9968
mp-1224908,FeNiSb6,0.1493000000000002
mp-1178232,FeO,1.2698
mp-765315,FeO2F,0.6247
mp-542759,FeP(H2O3)2,2.6724
mp-1212769,FeP(HO2)2,1.514
mp-20027,FeP2,0.4338999999999995
mp-743779,FeP2(H4O5)2,4.1734
mp-1182728,FeP2CO8,0.2544
mp-744839,FeP2H24C8S4NClO4,3.1831
mp-565721,FeP2HO7,2.6204
mp-25526,FeP2O7,0.05330000000000002
mp-566238,FeP2PbO7,3.816
mp-772000,FeP2WO8,2.4311000000000003
mp-746690,FeP3(H2O3)3,2.7925
mp-1200394,FeP3(HO)6,2.8567
mp-604694,FeP3(HO2)6,2.7058
mp-745164,FeP3(HO5)2,2.9486
mp-746355,FeP3H18C6(SO)6,1.8523
mp-743646,FeP3H5NO10,2.6111
mp-1181396,FeP3O11,2.2435
mp-1200792,FeP4(C2O5)2,3.2003
mp-763263,FeP4O11,3.5754
mp-1101552,FeP4O13,0.007700000000000041
mp-850225,FeP6(WO8)3,2.0728
mp-540760,FePCl8,1.4417
mp-1190395,FePH12(CBr)4,1.3351000000000002
mp-1212774,FePH3CO7,1.0225
mp-541423,FePH4NO4F,2.3960000000000004
mp-601661,FePH5CO4,3.6053
mp-1237189,FePH5CO8,2.5056
mp-705481,FePH5NO4F,2.6063
mp-1181488,FePH6(NO2)2,2.7322
mp-735529,FePH6NO5,3.3169000000000004
mp-1212772,FePNO4F,0.017000000000000015
mp-540111,FePO4,2.7434000000000003
mp-1196792,FePO6,1.633
mp-1103067,FePSe,0.1758999999999995
mp-2928,FePSe3,0.2601
mp-21239,FePb2(CN)6,3.4058
mp-1181338,FePb2Cl3O5,0.009300000000000086
mp-1205806,FePb2WO6,2.2105
mp-640765,FePbC5N6O,2.333
mp-1212788,FePt(CN)6,2.0638
mp-1522,FeS2,0.8770000000000007
mp-1191504,FeS2NO8,0.010000000000000007
mp-556297,FeS3(NCl2)2,1.2118
mp-554079,FeS3N2Cl5,1.3504
mp-1181369,FeS4Br4N5,0.8321000000000001
mp-557331,FeS4N4Cl3,0.9175
mp-559716,FeS4N4Cl5,1.0118
mp-1181467,FeS6(NO2)9,0.5486000000000001
mp-649334,FeSCl7,1.3835
mp-622785,FeSNO,1.5851000000000002
mp-1199695,FeSO10,0.040000000000000036
mp-1197109,FeSO11,0.0636000000000001
mp-558577,FeSO3,2.2284
mp-19254,FeSO4,4.2084
mp-1181387,FeSO6,0.17589999999999995
mp-1181666,FeSO7,0.032400000000000206
mp-1203935,FeSO8,0.08640000000000002
mp-1181303,FeSb(ClO)8,0.4019999999999997
mp-1213459,FeSb(P2O7)2,2.6619
mp-861596,FeSb(PO4)2,1.3378
mp-651106,FeSb2WC8Se2(O2F3)4,2.2688
mp-776516,FeSb3(PO4)4,1.3695
mp-774425,FeSb3(PO4)6,1.8466
mp-1224890,FeSb3Pb4O13,1.2874
mp-1201549,FeSb6(Pb2Se7)2,0.07519999999999971
mp-1224896,FeSb6Pd,0.2557999999999998
mp-988996,FeSbAs,0.02030000000000065
mp-675127,FeSbO4,1.0037000000000005
mp-27904,FeSbS,0.5463000000000005
mp-760,FeSe2,0.3597999999999999
mp-568653,FeSe2NCl6,1.3134
mp-1196307,FeSe3O8,0.2912
mp-607953,FeSeBr7,0.9852
mp-28189,FeSeCl7,1.3206
mp-1190442,FeSeO3F,2.3634
mp-769869,FeSeO4,1.6350999999999998
mp-871,FeSi,0.1809000000000012
mp-1212763,FeSi2C4(Cl3O2)2,3.6628
mp-1196266,FeSi6(H27C10)2,0.3899
mp-640075,FeSiGe,0.4379999999999997
mp-630331,FeSiO3,3.0441
mp-560618,FeSiP3O11,2.8624
mp-961653,FeSiW,0.06500000000000039
mp-21231,FeSn2(CN)6,3.547
mp-1196193,FeSn4H24C8(Se5N)2,0.1930000000000001
mp-541314,FeSnH12(OF)6,2.0402
mp-1178212,FeSnO3,0.7227999999999994
mp-1202032,FeSnO6,0.7183999999999999
mp-849683,FeTe(PO4)2,3.0692
mp-19880,FeTe2,0.07739999999999903
mp-566807,FeTe2BrO5,1.8533
mp-569390,FeTe2ClO5,2.1340000000000003
mp-1201424,FeTe3BrO7,1.9062
mp-1201019,FeTe3ClO7,2.2584
mp-1197776,FeTe3S3Cl3(OF2)9,3.0258000000000003
mp-565337,FeTe6O13,2.3469999999999995
mp-540998,FeTeBr7,1.0596
mp-540997,FeTeCl7,1.2702
mp-566335,FeTeO3F,2.2474000000000003
mp-1197402,FeTeO5,0.9011
mp-638705,FeTeS2N2Cl5,1.284
mp-565201,FeWClO4,2.2868
mp-19421,FeWO4,2.401
mp-28632,Ga(Bi3O5)4,2.3576
mp-571502,Ga(BiBr)4,1.5866
mp-569237,Ga(BiCl)4,1.4227
mp-1225246,Ga(FeO2)2,1.2133000000000005
mp-626729,Ga(HO)3,3.9221
mp-561104,Ga(IO3)3,3.3088
mp-567394,Ga(MoSe2)4,0.2071000000000005
mp-15560,Ga(PO3)3,4.8881000000000006
mp-567352,Ga(SbBr)4,2.0068
mp-31251,Ga(SbCl)4,2.0139
mp-1197613,Ga(W3O10)4,0.10930000000000016
mp-504827,Ga10GePb3O20,3.0284
mp-768931,Ga10Si2O19,2.0817
mp-676333,Ga11NO15,1.5736999999999997
mp-675033,Ga12Ag2Te19,0.6990000000000003
mp-1224934,Ga12OF36,1.1024
mp-676645,Ga2(Hg4Te5)3,0.0014999999999996128
mp-1213624,Ga2(MoO4)3,3.6554
mp-541451,Ga2(SO4)3,4.33
mp-1181313,Ga2(TeO3)3,3.7654
mp-772686,Ga2(WO4)3,4.2205
mp-530844,Ga23N5O27,1.1327000000000005
mp-1224864,Ga2Ag2Se3S,0.40390000000000015
mp-1224849,Ga2Ag2TeSe3,0.23229999999999995
mp-1224789,Ga2AsP,0.7789000000000001
mp-556712,Ga2BiS4,2.5248
mp-571085,Ga2BiSe4,1.8901
mp-765889,Ga2CoO4,1.7927
mp-1200913,Ga2CoP3NO14,0.1878
mp-1096441,Ga2CoRh,0.09809999999999963
mp-4152,Ga2CoS4,0.3237999999999999
mp-1201552,Ga2Cu(SeO3)4,0.6230000000000002
mp-1203611,Ga2Cu3(SeO3)6,0.24770000000000006
mp-1224952,Ga2CuAg(TeSe)2,0.0939000000000001
mp-1224814,Ga2CuAgS4,0.7157
mp-1224837,Ga2CuAgSe4,0.09719999999999997
mp-1224861,Ga2CuAgTe4,0.1400999999999999
mp-29300,Ga2CuCl8,0.6948
mp-1203192,Ga2CuSe3O10,0.09660000000000002
mp-1224904,Ga2Fe(PO4)3,2.8595
mp-649039,Ga2Fe2Bi2O9,1.8124
mp-690544,Ga2FeO4,0.5741000000000005
mp-20793,Ga2FeS4,0.3544999999999998
mp-1225113,Ga2Ge(MoS2)8,0.11910000000000046
mp-636461,Ga2Ge4Pb3O14,2.166
mp-542464,Ga2H6(SeO4)3,3.9647
mp-1203326,Ga2Hg3Cl8,2.5282
mp-755239,Ga2HgO4,0.5638000000000003
mp-4809,Ga2HgS4,1.5714
mp-4730,Ga2HgSe4,0.9168
mp-16337,Ga2HgTe4,0.6610999999999998
mp-636675,Ga2I3,2.2225
mp-31253,Ga2Ir,0.0057999999999998044
mp-565314,Ga2Mo(SeO5)2,3.6065
mp-580999,Ga2NiCl8,0.5238
mp-35236,Ga2NiO4,1.5034
mp-510656,Ga2NiP3H8NO14,4.1317
mp-570875,Ga2Os,0.6661000000000001
mp-1213475,Ga2P2H4NO8,2.9960000000000004
mp-705497,Ga2P2H9NO11,3.1938
mp-1197893,Ga2P2N2O8F3,0.009199999999999877
mp-24563,Ga2P3(HO3)3,5.1674
mp-1197103,Ga2P3(NO4)3,1.4103
mp-721075,Ga2P3H11O13,5.234
mp-758916,Ga2P3H12(NO4)3,4.130699999999999
mp-1182033,Ga2P4C6NO14,0.4810000000000001
mp-557672,Ga2Pb2S5,1.9122
mp-20496,Ga2PbO4,3.4441000000000006
mp-1196984,Ga2PbS4,2.5385000000000004
mp-571171,Ga2PbSe4,0.5207999999999999
mp-30945,Ga2PdBr8,1.6095000000000002
mp-30946,Ga2PdI8,1.4176
mp-572409,Ga2RhC4Cl7O4,2.0192
mp-1072429,Ga2Ru,0.0838000000000001
mp-555282,Ga2S5N5Cl7,2.5009
mp-1202473,Ga2Sb2H16C4S7N2,2.7462
mp-1195835,Ga2SbTe4Cl7,1.2205
mp-14280,Ga2Sn2S5,1.6968
mp-1194838,Ga2SnGeS6,0.9516
mp-1093790,Ga2TcPd,0.1882999999999999
mp-570186,Ga2Te2Br7,1.2944
mp-542662,Ga2Te2Cl7,1.4191
mp-566566,Ga2Te2MoO10,3.1844
mp-543040,Ga2Te3(HO2)6,3.7627
mp-30187,Ga2Te4O11,3.5027000000000004
mp-2371,Ga2Te5,0.957
mp-28931,Ga2TeO6,0.7341000000000006
mp-27255,Ga2TeS2,1.1978
mp-28423,Ga2TeSe2,1.6077
mp-770692,Ga2WO6,2.7165
mp-1019743,Ga3BN4,2.3928
mp-29075,Ga3Bi5Cl12,1.8012
mp-616204,Ga3Cl7,4.1427
mp-1224939,Ga3Cu3(Te2Se)2,0.09199999999999964
mp-1224891,Ga3Cu3SiSe8,0.6832000000000003
mp-636368,Ga3Fe,0.22150000000000025
mp-754929,Ga3NO3,1.0046999999999997
mp-30029,Ga3Ni13Ge6,0.00509999999999966
mp-570844,Ga3Os,0.6734
mp-721128,Ga3P3H6C2NO13,0.5648999999999997
mp-1203908,Ga3P3H6CNO13,0.5217
mp-3107,Ga3PO7,3.1409
mp-556117,Ga3Pb5F19,4.7168
mp-672204,Ga3Ru,0.3786999999999998
mp-1196451,Ga3Sb7(S4Cl7)2,2.0604
mp-1195290,Ga3Si5P10H36C12N4Cl11,3.1282
mp-28608,Ga3Te3I,1.2590999999999997
mp-530841,Ga41N11O45,0.4615999999999998
mp-1224948,Ga4B2O9,2.6306000000000003
mp-23519,Ga4Bi2O9,2.8782
mp-1224862,Ga4Bi3As,0.17790000000000014
mp-1200793,Ga4Ge(PbS3)4,2.3953
mp-29455,Ga4GeO8,2.1456
mp-531297,Ga4GeS4,1.7294
mp-1200504,Ga4H12C15O31,0.13390000000000013
mp-669455,Ga4Hg11(AsBr4)4,0.8595999999999999
mp-1203087,Ga4Hg11(PCl4)4,1.7243
mp-647209,Ga4P4O17,0.21899999999999986
mp-1196653,Ga4SbS9N3O2,0.4341
mp-1197409,Ga4Si12H138C55S4,3.7139
mp-755053,Ga4SiO8,2.4052999999999995
mp-676038,Ga5(PS)3,1.3431000000000002
mp-1212666,Ga5CuSe8,0.3788
mp-1212671,Ga5CuTe8,0.27639999999999976
mp-1225073,Ga6AgSb7(TeCl3)8,1.4175000000000002
mp-1196993,Ga6CuSb7(TeCl3)8,1.1502
mp-1202559,Ga6P8H56C14N7O32F,4.3039
mp-531948,Ga6SnTe10,0.8614000000000006
mp-686076,Ga6Te10Pb,1.0010000000000003
mp-767269,Ga7(Fe3O8)3,2.0330000000000004
mp-1203106,Ga7Sb7(Te4Cl13)2,1.399
mp-18388,Ga7Te10,0.8714
mp-14216,Ga8(Pb3O7)3,2.697
mp-1228185,Ga8As16H102C32(S12O)3,2.5993
mp-1203849,Ga8Sb7Se8Cl29,1.6836999999999998
mp-1197560,Ga8Sb7Te8Cl29,1.4760999999999995
mp-1224898,GaAg(GeSe3)2,1.0488
mp-654129,GaAg(PSe3)2,1.4987
mp-1224946,GaAgGeS4,1.4059
mp-11020,GaAgO2,0.5832999999999999
mp-5342,GaAgS2,0.9598
mp-5518,GaAgSe2,0.24839999999999995
mp-1224820,GaAgSeS,0.6022999999999998
mp-1224848,GaAgSnSe4,0.8845000000000001
mp-4899,GaAgTe2,0.19269999999999987
mp-1224853,GaAgTeSe,0.24319999999999986
mp-1195440,GaAs(H2O3)2,3.0476
mp-3996,GaAsO4,3.0694
mp-1213183,GaAsO6,0.3098
mp-1019740,GaB3N4,3.710900000000001
mp-30150,GaBH6,4.8941
mp-1007823,GaBN2,3.140900000000001
mp-1078259,GaBO3,3.8603
mp-505743,GaBPbO4,3.3713999999999995
mp-849761,GaBi25O39,2.1910000000000007
mp-1224998,GaBi3Sb2O11,2.5966000000000005
mp-558285,GaBiO3,1.8782
mp-1237377,GaBiSe,0.02119999999999989
mp-28384,GaBr2,3.1591
mp-30953,GaBr3,3.3473
mp-568848,GaCl2,3.8516
mp-30952,GaCl3,4.1628
mp-1212662,GaClO,2.6738
mp-605176,GaCoPH18C9NCl2O3,3.4515
mp-1212689,GaCu(WO4)2,0.9512
mp-1097611,GaCuAu2,0.2015999999999996
mp-1212660,GaCuBr4,1.5794
mp-29362,GaCuCl4,1.8149
mp-1224851,GaCuGeSe4,0.7231000000000001
mp-29403,GaCuI4,1.6967
mp-4280,GaCuO2,0.7286999999999999
mp-5238,GaCuS2,0.7056000000000004
mp-4840,GaCuSe2,0.042400000000000215
mp-1224922,GaCuSnSe4,0.4152999999999998
mp-3839,GaCuTe2,0.20330000000000048
mp-1224994,GaCuTeSe,0.02389999999999981
mp-588,GaF3,4.7051
mp-1225056,GaFe(BiO3)2,1.3434
mp-1097025,GaFe2BO5,1.8863
mp-1224929,GaFeNiO4,1.7944
mp-649086,GaFeO3,2.1045
mp-1197686,GaGe2H5CNO6,3.5148
mp-684743,GaGe5H6C4NO12,1.5426000000000002
mp-675437,GaGeS4,0.005300000000000082
mp-600257,GaH12C4NCl3,3.9312
mp-733840,GaH12N3(OF2)3,5.2162000000000015
mp-570588,GaH13(C2N)2,3.4467000000000003
mp-720727,GaH15N4(OF3)2,1.5268000000000002
mp-1202913,GaH15N5Cl3,4.2446
mp-23984,GaH18C3(N3F2)3,4.975899999999998
mp-605088,GaH19C8,3.5580000000000003
mp-554951,GaH20C2S2NO14,4.9488
mp-24280,GaH36C12S6(IO2)3,3.0307
mp-643759,GaH3NF3,5.3017
mp-24091,GaH4NF4,5.1596
mp-759288,GaH5(NF)2,2.7105
mp-1201119,GaH6C2SeI3,2.6461
mp-1224894,GaH6N2F3,5.2860000000000005
mp-760697,GaH7(NF2)2,5.0128
mp-1197790,GaH8N2OF5,5.7944
mp-1190111,GaHCl2,4.7888
mp-634326,GaHO2,3.2584
mp-571190,GaHg2SbCl4,0.7424999999999999
mp-1238685,GaHg3AsSCl4,2.6815
mp-1103091,GaHgCl4,2.8512
mp-570738,GaI2,2.3766
mp-30954,GaI3,2.3617
mp-1197441,GaN2OF5,1.8441
mp-541950,GaN5O14,1.2429
mp-541269,GaNi2BO5,3.4944
mp-541857,GaP(H2O3)2,4.4271
mp-1202565,GaP2H15C5(NO4)2,4.5361
mp-29817,GaP2I9,1.7111999999999998
mp-24465,GaP3(HO5)2,4.9811
mp-683966,GaP3(NCl3)3,3.9061
mp-1224931,GaPH11C3Cl,4.9661
mp-1198682,GaPH9C3Cl3O,4.8472
mp-677335,GaPO4,4.6909
mp-30979,GaPS4,2.3218
mp-1212935,GaPbF5,4.7234
mp-561379,GaRe(Cl3O)2,1.9707
mp-650814,GaRe2(CO)9,2.1241
mp-560637,GaS5N5Cl4,2.2969
mp-1194704,GaSb2(TeCl2)2,1.3142999999999998
mp-1224914,GaSb3Pb4O13,1.1691000000000005
mp-27735,GaSbCl6,3.928
mp-1224786,GaSbO4,0.13260000000000005
mp-567956,GaSe2NCl6,1.6414
mp-569902,GaSe3N2Cl5,1.8393
mp-23376,GaSeBr7,2.2094
mp-16338,GaSi(MoS2)4,0.02210000000000001
mp-568873,GaSi2As(H3C)8,3.7194
mp-1079836,GaSi3C3N,2.6052
mp-604970,GaSi4H30C10Cl,3.8651
mp-1182730,GaSiC4N,0.6963
mp-1092268,GaSiCN,0.5322999999999993
mp-27449,GaTeCl,2.1702
mp-29541,GaTeI7,1.8586
mp-558984,GaTeO3F,3.7078
mp-21195,Gd(Al2Cr)4,0.005600000000000271
mp-1204314,Gd(BO2)3,2.5836
mp-1202527,Gd(BO2)6,0.17459999999999998
mp-672360,Gd(C2N3)3,2.0221
mp-1212754,Gd(ClO4)3,2.289
mp-542988,Gd(CoGe)2,0.006800000000000139
mp-20806,Gd(CuGe)2,0.006199999999999761
mp-20707,Gd(CuO2)2,0.00820000000000043
mp-1226384,Gd(CuS)3,0.7351999999999999
mp-20677,Gd(CuSi)2,0.03699999999999992
mp-542986,Gd(FeSi)2,0.011700000000000266
mp-22181,Gd(GePd)2,0.0019000000000000128
mp-22187,Gd(GeRh)2,0.003199999999999648
mp-24073,Gd(HO)3,3.2235
mp-510661,Gd(IO3)3,2.9587
mp-22563,Gd(LuS2)3,1.0491999999999997
mp-20837,Gd(MnGe)2,0.003599999999999603
mp-20448,Gd(MnSi)2,0.0013999999999994015
mp-1203247,Gd(NO3)3,2.53
mp-1213527,Gd(NO5)3,0.7583
mp-21473,Gd(NiP)2,0.017800000000001148
mp-579125,Gd(PO3)3,3.4526
mp-20102,Gd(PdO2)2,0.14559999999999995
mp-1199105,Gd(ReO5)3,0.5086999999999997
mp-21287,Gd(SiAg)2,0.0129999999999999