task_id,pretty_formula,band_gap
mp-765619,Li6NbFe5O12,1.7344000000000004
mp-1176951,Li6NbV3(PO4)6,0.14749999999999994
mp-1198049,Li6Nd(BO3)3,4.5786
mp-765374,Li6Ni11(OF12)2,3.3242
mp-777109,Li6Ni2C4SO16,3.6761
mp-761643,Li6Ni3P6WO24,2.1899
mp-705432,Li6Ni5(P2O7)4,3.4812
mp-766747,Li6Ni9(PO4)8,2.5554
mp-1211124,Li6NiCl8,1.2534
mp-771991,Li6NiO4,2.8595
mp-765531,Li6NiOF6,1.8946
mp-1176966,Li6P8W3O29,2.8645
mp-1103940,Li6PBrO5,5.1099000000000006
mp-1104386,Li6PClO5,5.2543
mp-985591,Li6PS5Br,2.1276
mp-985592,Li6PS5Cl,2.1375
mp-950995,Li6PS5I,2.2742
mp-767482,Li6ScFe5(SiO3)12,2.7659
mp-27767,Li6Si2O7,4.7952
mp-1211541,Li6Sm(BO3)3,4.638
mp-769001,Li6Sn2B4SO16,3.47
mp-776484,Li6Sn3P8O29,3.1607000000000003
mp-765227,Li6Sn5(P2O7)4,2.6673000000000004
mp-772980,Li6Te2O9,1.2989000000000002
mp-7941,Li6TeO6,2.798
mp-769458,Li6Ti(BO3)3,0.025700000000000056
mp-772055,Li6Ti2O7,2.9524
mp-770212,Li6Ti2S6O,2.2271
mp-762462,Li6Ti3Cr(PO4)6,0.05360000000000032
mp-1176962,Li6Ti3Fe(PO4)6,0.04980000000000029
mp-778149,Li6Ti3P8O29,2.3633
mp-763666,Li6Ti3V(PO4)6,0.009400000000000295
mp-743638,Li6Ti8Ni(PO5)8,2.9796
mp-997517,Li6TiCr3(PO4)6,0.3697999999999997
mp-761955,Li6TiFe3(PO4)6,1.3799
mp-868572,Li6TiFe5O12,1.5808999999999995
mp-1176949,Li6TiMn3(PO4)6,0.05569999999999986
mp-763686,Li6TiNi7O16,0.2958999999999996
mp-1211340,Li6Tm(BO3)3,4.7974
mp-8609,Li6UO6,2.1685
mp-770782,Li6V(BO3)3,2.4695
mp-861486,Li6V(OF)3,2.1072
mp-766665,Li6V(SiO4)2,1.7099000000000002
mp-772590,Li6V2B4SO16,1.92
mp-777141,Li6V2C4SO16,3.0543
mp-764951,Li6V2O5F2,1.7800000000000002
mp-765834,Li6V2OF11,1.9672
mp-761800,Li6V3Cr(PO4)6,1.9505000000000003
mp-1176990,Li6V3Cu(PO4)6,0.18089999999999984
mp-1176939,Li6V3Fe(PO4)6,1.5995
mp-771653,Li6V3Ni(PO4)6,0.9196
mp-762664,Li6V3P6WO24,1.5166999999999995
mp-775699,Li6V3Sb3O16,1.1404
mp-771515,Li6V3W3O16,1.3644
mp-765903,Li6V5(P2O7)4,2.633
mp-764771,Li6V5O12,0.6765000000000003
mp-765677,Li6V5SbO12,0.8316999999999997
mp-1176892,Li6V9(PO4)8,1.6734999999999998
mp-29250,Li6VCl8,1.5371
mp-767294,Li6VCoP2(CO7)2,0.8690000000000002
mp-1176888,Li6VCr3(PO4)6,2.1483
mp-767288,Li6VCrP2(CO7)2,1.9883
mp-765804,Li6VF8,3.5201
mp-761511,Li6VFe3(PO4)6,1.7495
mp-863880,Li6VFe5O12,1.1956000000000002
mp-767284,Li6VFeP2(CO7)2,2.6203000000000003
mp-766157,Li6VO4F,2.3204
mp-765511,Li6VO5F,2.2589
mp-761389,Li6VSb3(PO4)6,1.6104999999999996
mp-775752,Li6VSn3(PO4)6,1.5020000000000002
mp-767923,Li6W2O9,2.6091
mp-3503,Li6WN4,3.0573999999999995
mp-775983,Li6WO6,3.6671
mp-14704,Li6Y(BO3)3,4.7398
mp-1147591,Li6Zn3(PS4)4,2.6651
mp-14495,Li6ZnO4,3.5116
mp-5418,Li6Zr2O7,3.9436
mp-1198972,Li6Zr6HCl18,0.08389999999999986
mp-559708,Li6ZrBeF12,6.1837
mp-779983,Li7(CoO3)2,0.9991
mp-762513,Li7(NiO2)12,0.022699999999999942
mp-762007,Li7(NiO2)9,0.3557000000000001
mp-768163,Li7(SbS)2,0.7913000000000001
mp-1212183,Li7Al6,0.06420000000000002
mp-768747,Li7Bi(BO4)2,2.3868
mp-759424,Li7Bi2P7O24,4.4624000000000015
mp-1029517,Li7BiN4,1.113
mp-38487,Li7BiO6,1.8635
mp-28592,Li7Br3O2,4.2454
mp-849470,Li7Co(O2F)2,1.1591
mp-763913,Li7Co(OF)3,2.4040000000000004
mp-771536,Li7Co5O12,0.6214
mp-765549,Li7CoOF7,2.267
mp-762894,Li7Cr2O8,0.5022
mp-773702,Li7Cr2P7O24,2.7109
mp-761316,Li7Cr3(SiO6)2,3.3440000000000003
mp-771537,Li7Cr3(WO8)2,1.4382
mp-780115,Li7Cr3Co(PO4)6,2.1361000000000003
mp-780107,Li7Cr3Fe(PO4)6,1.5433
mp-504389,Li7Cr4P9O32,2.9298
mp-773775,Li7Cr7(P4O17)2,2.2607
mp-763893,Li7Cr7P6(O8F)3,1.4172000000000002
mp-765435,Li7CrFe3(PO4)6,1.1046
mp-771074,Li7CrO6,0.8718
mp-860886,Li7Cu(SiO4)2,1.1446
mp-1222572,Li7Cu2N3,0.0562999999999998
mp-769204,Li7CuAs4ClO14,0.3601000000000001
mp-780217,Li7CuO4,1.9921
mp-1223068,Li7Eu8Si4Cl7O16,0.3691000000000004
mp-853205,Li7Fe(O2F)2,2.6244
mp-761522,Li7Fe2P7O24,2.5575
mp-761782,Li7Fe3(SiO6)2,1.6582
mp-775193,Li7Fe3Ni(PO4)6,2.4234
mp-771503,Li7Fe3O8,1.8908
mp-1176924,Li7Fe3Sb(PO4)6,1.5627999999999995
mp-1177031,Li7Fe4(P2O7)4,1.4063
mp-1177121,Li7Fe4(PO4)6,1.4865999999999997
mp-540520,Li7Fe4P9O32,2.5665
mp-1176882,Li7Fe5O12,0.4691999999999998
mp-851072,Li7Fe5OF15,2.9202
mp-1176885,Li7Fe6(SiO4)6,1.8462
mp-997551,Li7Fe7P6(O8F)3,3.1594
mp-761622,Li7Fe7SiO16,1.9547
mp-1176890,Li7Fe8(BO3)8,1.6896000000000002
mp-1177019,Li7FeNi3(PO4)6,0.021500000000000075
mp-765002,Li7FeO5F,0.2246
mp-763688,Li7FeO6,0.3176
mp-762690,Li7FeP4O14F,3.9178
mp-1200910,Li7H5N4,2.2744
mp-1222932,Li7Ho3(MoO4)8,3.4109000000000003
mp-675941,Li7IN2,1.6664
mp-1200057,Li7La3(SnO6)2,3.5968
mp-1198622,Li7La3Hf2O12,4.2843
mp-942733,Li7La3Zr2O12,4.450799999999999
mp-771050,Li7MgNi7O16,0.3481000000000001
mp-1222860,Li7Mn(BO3)3,3.5675
mp-767185,Li7Mn(O2F)2,2.4823
mp-764343,Li7Mn(OF)3,3.0122
mp-691134,Li7Mn10O20,0.2643
mp-761430,Li7Mn11(Si3O16)2,0.28790000000000004
mp-694974,Li7Mn16O32,0.0041999999999999815
mp-1175034,Li7Mn2(CoO4)3,0.9918999999999998
mp-1176968,Li7Mn2Fe6(PO4)8,1.2935
mp-761597,Li7Mn2P7O24,1.2326
mp-767011,Li7Mn3(SiO6)2,1.2906000000000004
mp-771587,Li7Mn3(WO8)2,0.07040000000000002
mp-765669,Li7Mn3Co3O16,0.08190000000000007
mp-1176884,Li7Mn3Fe(PO4)6,0.019000000000000128
mp-1176894,Li7Mn3P3(CO7)3,0.34830000000000005
mp-1176940,Li7Mn4(P2O7)4,0.15270000000000006
mp-765245,Li7Mn4(PO4)6,0.1835
mp-1175269,Li7Mn4CoO12,0.7331999999999996
mp-761577,Li7Mn4P9O32,0.8547999999999998
mp-1175314,Li7Mn5O12,0.8743000000000003
mp-761627,Li7Mn7(P4O17)2,1.0261999999999998
mp-763896,Li7Mn7P6(O8F)3,3.1664000000000003
mp-779028,Li7Mn8(BO3)8,0.22949999999999984
mp-5515,Li7MnN4,0.6562000000000001
mp-766915,Li7MnO5F,1.2879
mp-762708,Li7MnP4O14F,3.9907
mp-504383,Li7Mo4P9O32,3.8605
mp-14827,Li7NbN4,3.3305
mp-37399,Li7NbO6,3.5059
mp-768990,Li7NbS6,2.3266
mp-1198740,Li7Nd3Zr2O12,4.266
mp-764953,Li7Ni(O2F)2,1.5530000000000002
mp-773266,Li7Ni5O12,0.5288999999999997
mp-766721,Li7NiOF7,3.1729000000000003
mp-34375,Li7OsO6,0.7222999999999997
mp-641703,Li7P3S11,2.4142
mp-14712,Li7PN4,3.4744
mp-1211324,Li7PS6,2.0626
mp-1211446,Li7PSe6,0.9259
mp-37839,Li7RuO6,0.6535000000000002
mp-762329,Li7Sb2P7O24,4.0418
mp-1029522,Li7SbN4,2.2181
mp-37436,Li7SbO6,3.4465000000000003
mp-851054,Li7Sc9Fe(SiO3)20,0.0013999999999998456
mp-1239225,Li7SiPO8,4.1562
mp-14753,Li7TaN4,3.3395
mp-28891,Li7TaO6,4.373399999999998
mp-767146,Li7Ti12NbO30,2.6266
mp-757327,Li7Ti2P7O24,0.21480000000000032
mp-767392,Li7Ti7Nb5O30,2.1219
mp-766055,Li7TiFe3(PO4)6,1.0648
mp-765256,Li7V(O2F)2,2.2040999999999995
mp-850007,Li7V16(PO4)24,0.8331999999999999
mp-763477,Li7V2P7O24,2.5942
mp-1176994,Li7V3(SiO6)2,1.6265999999999998
mp-1176854,Li7V3Ni(PO4)6,0.008299999999999752
mp-1176861,Li7V3P8O29,0.9086999999999998
mp-1176889,Li7V4(CO3)10,1.1509
mp-1176838,Li7V4(PO4)6,0.3890000000000001
mp-764713,Li7V4O11F,1.5574999999999997
mp-504399,Li7V4P9O32,2.1998
mp-766239,Li7V5O12,0.7700999999999998
mp-773945,Li7V7(P4O17)2,1.1273
mp-763895,Li7V7P6(O8F)3,2.5380000000000003
mp-1101587,Li7V8(PO4)12,0.8512000000000002
mp-673833,Li7VAs4,0.893
mp-769539,Li7VGeO8,3.5013
mp-4604,Li7VN4,3.011
mp-764210,Li7VO5F,1.7161000000000002
mp-771579,Li7W5O16,1.7278000000000002
mp-767467,Li7Y7Zr9S32,1.0522999999999998
mp-754856,Li7Y7ZrS16,1.7404000000000002
mp-695434,Li7Zr3Nb(TeO6)4,1.915
mp-763684,Li8(CoO2)5,0.0383
mp-762677,Li8(NiO2)11,0.37780000000000014
mp-850116,Li8(NiO2)5,0.01730000000000009
mp-768921,Li8B2O7,5.509600000000002
mp-1201314,Li8Be6P7O29,0.1038
mp-566159,Li8Bi2(MoO4)7,2.9688
mp-560555,Li8Bi2PdO10,0.8559999999999999
mp-8611,Li8CeO6,2.5162
mp-764104,Li8Co(O2F)2,2.4959
mp-764388,Li8Co3NiO8,1.9618
mp-781501,Li8CoO5F,1.6314000000000002
mp-31531,Li8CoO6,1.0758
mp-770861,Li8Cr2O9,0.6639999999999999
mp-1176846,Li8Cr3SbO12,0.7295000000000003
mp-767678,Li8Cr3TeO12,0.8811
mp-780493,Li8CrO6,2.1344000000000003
mp-753974,Li8CrS6,0.7727999999999999
mp-764849,Li8Fe(O2F)2,2.9018
mp-781076,Li8Fe2O7,2.5120000000000005
mp-764985,Li8Fe3Co7O20,0.4702000000000002
mp-775125,Li8Fe3Sn(PO4)6,2.2165000000000004
mp-849393,Li8Fe7(PO4)8,0.010800000000000145
mp-764400,Li8FeCo3O8,1.9239
mp-764865,Li8FeCo9O20,0.0947
mp-777221,Li8FeO5F,2.9946
mp-28548,Li8GeO6,3.4877
mp-752922,Li8HfO6,5.3818
mp-774516,Li8Mg3Cu9(SiO3)16,0.3738999999999999
mp-778042,Li8MgCo13O28,0.33929999999999993
mp-763440,Li8Mn(O2F)2,2.6852
mp-771196,Li8Mn12Ni4O31,0.8603000000000001
mp-777732,Li8Mn13Cr3O32,0.10939999999999994
mp-771651,Li8Mn13Fe3O32,0.2117
mp-770529,Li8Mn15CrO32,0.19600000000000015
mp-773961,Li8Mn15NiO32,0.5663
mp-770513,Li8Mn2O7,0.9122
mp-771381,Li8Mn3Cr(PO4)6,0.3984000000000001
mp-765119,Li8Mn3CrO12,0.9127999999999998
mp-775252,Li8Mn3Fe5(BO3)8,3.0354
mp-770206,Li8Mn3V(PO4)6,0.4264999999999999
mp-779870,Li8Mn5Fe3(BO3)8,3.3198
mp-764701,Li8Mn5O10,0.4652000000000003
mp-763533,Li8Mn7Co(PO4)12,0.019600000000000062
mp-1176950,Li8Mn7Cu(PO4)12,0.03530000000000011
mp-775268,Li8Mn7Fe(BO3)8,2.9600000000000004
mp-781111,Li8Mn7Nb(PO4)12,0.1838
mp-1176895,Li8Mn7Sn(PO4)12,0.2498
mp-781083,Li8Mn7V(PO4)12,0.0132000000000001
mp-765516,Li8Mn9O18,0.5634000000000001
mp-766919,Li8MnCr3O12,0.8085999999999998
mp-1176839,Li8MnFe7(BO3)8,3.1496
mp-849430,Li8MnFe7(PO4)8,3.9039
mp-764083,Li8MnNi7O16,0.08869999999999978
mp-767026,Li8MnO5F,1.975
mp-770260,Li8MnO6,1.7904
mp-767209,Li8Nb(FeO4)3,0.00759999999999983
mp-28030,Li8Nb2O9,3.2086
mp-769036,Li8Nb2S9,1.085
mp-765344,Li8NbNi3(PO4)6,0.2894999999999994
mp-861293,Li8Ni(O2F)2,3.012
mp-764727,Li8NiO5F,2.0822
mp-22538,Li8PbO6,2.3403
mp-8610,Li8PtO6,2.1611
mp-768139,Li8Sb2S,1.5898
mp-775186,Li8Sc5Fe3(SiO3)16,2.9243
mp-775203,Li8ScFe7(SiO3)16,2.7487000000000004
mp-973793,Li8SeN2,1.7523
mp-28549,Li8SiO6,4.4497
mp-4527,Li8SnO6,3.813400000000001
mp-772619,Li8Te2O9,2.2984
mp-1190809,Li8TeN2,2.3168
mp-760690,Li8TeO6,2.6254
mp-772920,Li8Ti2O7,0.7655000000000003
mp-773922,Li8Ti6Mn7O30,0.9131
mp-770122,Li8TiMn3(PO4)6,1.1916000000000002
mp-767679,Li8TiMn3O12,1.3066
mp-776113,Li8TiMn7(PO4)12,0.16609999999999991
mp-772521,Li8TiO6,3.9916
mp-753546,Li8TiS6,2.2894
mp-768084,Li8V11O22,0.8115000000000001
mp-849522,Li8V3P8O29,1.0229
mp-765421,Li8VCo3(PO4)6,0.0038000000000000256
mp-765328,Li8VNi3(PO4)6,1.5875
mp-765837,Li8VO5F,2.1185
mp-773356,Li8VO6,1.7832
mp-780046,Li8WO6,2.9931
mp-1176803,Li8Zr7Fe(PO4)12,0.0481000000000007
mp-755225,Li8ZrO6,4.7583
mp-776979,Li9(CoO4)2,0.6781999999999999
mp-780203,Li9(FeO4)2,0.024799999999999992
mp-769454,Li9(NiO2)10,0.3567999999999998
mp-775731,Li9(NiO4)2,0.1262
mp-1185524,Li95Mn16O64,0.031600000000000066
mp-770726,Li9Al(CoO4)2,2.3287000000000004
mp-770517,Li9Al(NiO4)2,2.8286
mp-560209,Li9Al3P8O29,5.3493
mp-585305,Li9Bi3P8O29,4.1806
mp-779282,Li9Bi5O13,0.5211999999999999
mp-762472,Li9Co13O28,0.0484
mp-762878,Li9Co15O28,0.1903999999999999
mp-1101531,Li9Co3P8O29,1.2671
mp-1175469,Li9Co7O16,0.5794999999999999
mp-735506,Li9Co9O17,0.6470000000000002
mp-1176808,Li9Cr12Co7O48,0.6509999999999999
mp-1176819,Li9Cr12Fe7O48,0.7908
mp-853223,Li9Cr19O48,0.08240000000000003
mp-779829,Li9Cr2(H9O7)3,3.8432
mp-504360,Li9Cr3P8O29,3.0837000000000003
mp-765270,Li9Cr4(BO3)8,0.5138
mp-776706,Li9Cr4C8(SO16)2,0.014699999999999937
mp-1176987,Li9Cr4P4(CO7)4,0.2736000000000001
mp-761419,Li9Cr5(SiO8)2,2.8319000000000005
mp-764700,Li9Cr5O12,1.4592
mp-675918,Li9CrN5,1.0746000000000002
mp-776035,Li9Cu3P8O29,0.4682
mp-773975,Li9Fe23O32,1.0953000000000004
mp-780155,Li9Fe3(OF7)2,1.8078
mp-579738,Li9Fe3P8O29,2.5478
mp-1176795,Li9Fe4(PO5)4,0.1211
mp-767668,Li9Fe5(SiO8)2,1.6460999999999997
mp-764889,Li9Fe5O12,0.2790000000000004
mp-744651,Li9FeCo12(PO4)12,0.3064
mp-560058,Li9Ga3P8O29,3.3283000000000005
mp-997535,Li9Mg(Ni6O13)2,0.4270000000000001
mp-745203,Li9Mg12Fe(PO4)12,0.8375999999999999
mp-1203004,Li9Mg3P4O16F3,5.5587
mp-1176791,Li9Mn(SiO5)2,1.0543999999999998
mp-780186,Li9Mn10O20,0.4009
mp-769460,Li9Mn12Ni3O32,0.16310000000000002
mp-769450,Li9Mn15O32,0.4615
mp-690161,Li9Mn20O40,0.4996
mp-776365,Li9Mn21O40,0.2917000000000001
mp-770680,Li9Mn2AlO8,2.1143
mp-1175432,Li9Mn2Co5O16,0.6214000000000004
mp-780127,Li9Mn2P4HO18,1.0722
mp-504176,Li9Mn3P8O29,1.4499000000000002
mp-765264,Li9Mn4(BO3)8,0.6737
mp-861251,Li9Mn5(SiO8)2,1.1536000000000004
mp-853217,Li9Mn7Cr12O48,0.2643000000000001
mp-1100541,Li9Mn7O16,0.8489
mp-851270,Li9Mn7V12O48,0.4028999999999999
mp-851292,Li9Nb10Cr6(PO4)24,0.03079999999999972
mp-778150,Li9Nb3P8O29,0.1548999999999996
mp-1177010,Li9Nb7V12O48,1.3658
mp-1223032,Li9Nd2(PS4)5,2.6472999999999995
mp-690979,Li9Nd6Sb3TeO24,3.2456000000000005
mp-698630,Li9Ni23O32,0.005299999999999193
mp-777285,Li9P8W3O29,3.6747
mp-557964,Li9S3N,2.4272
mp-776589,Li9Sb3P8O29,3.827
mp-767516,Li9Sb3S,0.0665
mp-859799,Li9Si2Ni5O16,0.5968999999999998
mp-770123,Li9TiMn3(PO4)6,0.3246000000000002
mp-772575,Li9V12Cr7O48,0.008600000000000052
mp-849282,Li9V12Te7O48,1.7585
mp-850769,Li9V14O35,0.4667999999999999
mp-777033,Li9V19O48,1.2160999999999995
mp-1176899,Li9V21O40,0.6301000000000001
mp-849392,Li9V2P4HO18,0.4047000000000001
mp-777624,Li9V3(WO4)7,1.5507
mp-504366,Li9V3P8O29,2.0808
mp-1176830,Li9V4(PO4)6,0.05379999999999985
mp-863919,Li9V5(Si5O16)2,1.7645
mp-767624,Li9V5(SiO8)2,1.6405000000000003
mp-1176978,Li9V6(P8O29)2,0.2188
mp-1176824,Li9V8F48,0.3765999999999998
mp-777254,Li9Y(NiO4)2,2.6839999999999997
mp-1185329,LiAcRh2,0.2113000000000005
mp-864755,LiAcTe2,0.5574000000000003
mp-985571,LiAg(CO2)2,2.689
mp-1222677,LiAg2(NO2)3,1.756
mp-1095903,LiAg2Au,0.484
mp-1095962,LiAg2Bi,0.4315000000000002
mp-695951,LiAg2P3(HO5)2,2.4369
mp-27227,LiAg3O2,0.7277999999999998
mp-1093804,LiAgAu2,1.7081
mp-571454,LiAgC2,1.4489999999999998
mp-1176792,LiAgF2,1.8565
mp-765559,LiAgF4,1.4119000000000002
mp-859118,LiAgF6,0.8249999999999997
mp-1096330,LiAgHg2,1.0407000000000002
mp-772290,LiAgO,1.0899
mp-996962,LiAgO2,0.6091000000000001
mp-1096155,LiAgPb2,0.1391
mp-1093802,LiAgPd2,0.1825000000000001
mp-1204402,LiAl(CN2)2,3.5411
mp-1020030,LiAl(GeO3)2,3.383
mp-695962,LiAl(H2N)4,0.9087
mp-19209,LiAl(MoO4)2,3.6252
mp-559987,LiAl(PO3)4,5.7441
mp-1188124,LiAl(PS3)2,2.7194
mp-6442,LiAl(Si2O5)2,5.3223
mp-558808,LiAl(SiO3)2,4.9005
mp-1180582,LiAl2BrO6,0.9926
mp-770071,LiAl2FeO6,0.8270999999999997
mp-1097038,LiAl2H6BrO6,4.7794
mp-643655,LiAl2H6ClO6,5.1531
mp-1096052,LiAl2Ru,0.02629999999999999
mp-695365,LiAl3Si9(N7O)2,3.8741
mp-530399,LiAl5O8,5.2491
mp-547017,LiAlAs2O7,3.0497
mp-557104,LiAlB2O5,5.4116
mp-1195533,LiAlC16Cl12(OF6)4,4.6109
mp-22983,LiAlCl4,5.5616
mp-770090,LiAlCoO3,2.1941
mp-770544,LiAlCrO3,1.9811
mp-770545,LiAlCrO4,0.6509
mp-770577,LiAlFeO3,2.244
mp-1097579,LiAlGa2,0.6210999999999998
mp-1222525,LiAlGeO4,3.8803
mp-698470,LiAlH16(CN)4,3.6569
mp-1195591,LiAlH34(C3N)4,4.257199999999999
mp-27653,LiAlH4,4.729
mp-1196128,LiAlH8C16(O2F9)4,5.8132
mp-1096281,LiAlHg2,0.0020999999999999908
mp-1096540,LiAlIr2,0.11000000000000032
mp-1222577,LiAlNi3O5,2.709900000000001
mp-770087,LiAlNiO3,3.0139
mp-3427,LiAlO2,4.5899
mp-644409,LiAlPHO5,5.728999999999999
mp-41795,LiAlPO4F,5.9118
mp-1211159,LiAlPO5,0.2799999999999998
mp-9055,LiAlPdF6,1.0557
mp-1106183,LiAlS2,4.1016
mp-556310,LiAlS3(Cl2O3)2,2.2856
mp-7117,LiAlSe2,3.0233
mp-3161,LiAlSi,0.11209999999999988
mp-24104,LiAlSi2H2O7,4.8580000000000005
mp-1190355,LiAlSi2O7,0.07780000000000001
mp-1222571,LiAlSi3O8,5.2109000000000005
mp-697020,LiAlSiH2O5,4.6145000000000005
mp-18220,LiAlSiO4,5.054499999999999
mp-1198062,LiAlSiO5,0.005500000000000005
mp-4586,LiAlTe2,2.4411
mp-769644,LiAlVO4,1.7215000000000005
mp-7943,LiAs,0.3722000000000003
mp-23894,LiAs(HO2)2,3.9942
mp-1197471,LiAs(XeF4)3,2.9516
mp-1192746,LiAs2H3O7,3.2883
mp-1203059,LiAs3H2O9,2.7916
mp-9144,LiAsF6,5.1404
mp-738611,LiAsH20(C2O)4,0.3721000000000001
mp-697263,LiAsH2OF6,4.1762
mp-556562,LiAsH6(OF2)3,3.7843
mp-9657,LiAsO3,3.3858
mp-1105750,LiAu(S2O7)2,1.944
mp-29868,LiAuC2,1.5321
mp-1201845,LiAuC4S4(OF)12,1.486
mp-554442,LiAuF4,2.085
mp-1079483,LiAuF6,1.8137
mp-29520,LiAuI4,0.7374
mp-996959,LiAuO2,1.5375
mp-29829,LiAuS,1.5804
mp-13590,LiB(CN)4,6.3482
mp-556165,LiB(CO2)4,3.3042
mp-1201648,LiB(H3N)4,5.2835
mp-1204824,LiB(H4N)2,5.5353
mp-23662,LiB(HO)4,5.5694
mp-698205,LiB(HO2)2,3.5543
mp-1020060,LiB(S2O7)2,5.51
mp-1020106,LiB(SO4)2,6.3874
mp-1222458,LiB12PC,2.631900000000001
mp-655591,LiB13C2,2.551
mp-1196441,LiB2H11N2,4.5188000000000015
mp-24560,LiB2H3O5,4.8897
mp-1098011,LiB2O3,0.8525
mp-770808,LiB2SbO5,2.8864000000000005
mp-761862,LiB2SbO6,3.1674999999999995
mp-1222413,LiB3,0.0020999999999999908
mp-604486,LiB3H18N5,3.2896
mp-849266,LiB3H3SeO9,0.5655
mp-1211100,LiB3H8,6.1447
mp-850414,LiB3P(HO3)3,5.9879999999999995
mp-740714,LiB5H2O9,6.0817
mp-1180610,LiB5O13,0.035700000000000065
mp-1198595,LiB6(H5O)2,5.2296999999999985
mp-569450,LiB6C,1.3922
mp-1200061,LiB6H21N5,4.174
mp-558105,LiB6O9F,6.4556
mp-1196966,LiB6S4(Cl3O4)2,1.4769
mp-631545,LiBBr2,0.4841
mp-9244,LiBC,0.8428000000000004
mp-12403,LiBF4,8.246
mp-556018,LiBH15C5NO3,4.0223
mp-568523,LiBH2,0.8638999999999999
mp-707929,LiBH2C4O9,3.3510000000000004
mp-730585,LiBH2OF4,7.129
mp-30209,LiBH4,6.8115000000000006
mp-1196081,LiBH4C2(O3F)2,3.3824
mp-1196392,LiBH5N,4.1236
mp-1202697,LiBH6N,5.707000000000001
mp-1203555,LiBH7N,5.6307
mp-3635,LiBO2,5.226
mp-1211209,LiBO4,0.006899999999999906
mp-1203380,LiBP2Pb4O11,2.5775
mp-555090,LiBS4(ClO3)4,4.6226
mp-756853,LiBSbO3,0.4794999999999998
mp-1097294,LiBe2Au,1.0827
mp-1096433,LiBe2Os,0.4607000000000001
mp-9562,LiBeAs,1.0077000000000005
mp-1201175,LiBeAsO5,1.0544
mp-1020026,LiBeBO3,6.0842
mp-1097607,LiBeCu2,0.12539999999999996
mp-570218,LiBeH3,4.8256
mp-706611,LiBeH4NF4,6.5775
mp-721303,LiBeH5(NF2)2,5.6924
mp-560581,LiBeH8CNOF4,5.5732
mp-29463,LiBeN,2.6858000000000004
mp-1180551,LiBeNF4,2.9164000000000003
mp-9915,LiBeP,1.1585
mp-1100398,LiBeSb,1.0111999999999997
mp-1176797,LiBi(BO3)2,1.3388
mp-504354,LiBi(PO3)4,5.1177
mp-559893,LiBi(PdO2)2,0.4459999999999997
mp-1211195,LiBi(WO4)2,2.4043
mp-504151,LiBi2(PO4)3,0.5400999999999999
mp-768754,LiBi2(SO4)3,0.6097000000000001
mp-768636,LiBi2BO5,1.731800000000001
mp-758810,LiBi2P3O11,3.4454
mp-759653,LiBi2PO6,2.7156
mp-768150,LiBi3(BrO2)2,2.5094000000000003
mp-754206,LiBi3(ClO2)2,2.7135
mp-775430,LiBi3(IO2)2,1.7552
mp-759396,LiBi3(P3O10)2,3.9787
mp-26173,LiBi3(PO5)2,3.3957
mp-768997,LiBi3O5,1.9094
mp-768774,LiBi4B3O11,3.4960000000000004
mp-759254,LiBi4P7O24,3.8214
mp-778009,LiBi6B3O14,2.4456999999999995
mp-768795,LiBiB2O5,3.2734
mp-770759,LiBiCSO7,3.6945
mp-1211242,LiBiF2,0.2522000000000002
mp-28567,LiBiF4,4.8473
mp-27419,LiBiF6,2.5394
mp-28253,LiBiO2,2.0370000000000004
mp-29077,LiBiO3,0.1445000000000003
mp-26129,LiBiP2O7,3.9644
mp-1103060,LiBrN,1.6605
mp-1378,LiC,3.2727
mp-1190940,LiC2N3,4.6672
mp-935266,LiC2NO6,1.6159999999999999
mp-1206066,LiC2O5,0.4908999999999999
mp-557395,LiC2S2N(O2F3)2,5.9283
mp-1196643,LiC2S2NO5F6,1.5898
mp-1204247,LiC4OF9,6.0741999999999985
mp-1222792,LiC6N9Cl,0.055400000000000005
mp-30057,LiCN,5.5313
mp-1222426,LiCNO,4.802899999999998
mp-1180803,LiCO2,0.4129
mp-636952,LiCS(OF)3,6.5704
mp-569282,LiCa10MgSb9,0.9226
mp-1211639,LiCa11Sb9,0.8044000000000002
mp-1097380,LiCa2Ag,0.6468
mp-1222411,LiCa2CuN2,1.0307999999999995
mp-1211085,LiCa2FeN2,0.4604000000000004
mp-1104693,LiCa2HC3,1.3156
mp-570850,LiCa2InGe2,0.0043999999999995145
mp-1202461,LiCa2Mn2Si5HO15,3.4059
mp-766983,LiCa2Nb3O10,2.0222
mp-774479,LiCa2Ta3O10,2.1736
mp-1191787,LiCa3OsO6,0.8375999999999997
mp-6342,LiCa3RuO6,0.3111000000000001
mp-1020056,LiCa3Si2N5,2.4392000000000005
mp-677136,LiCa3Zr3TaO12,3.9394
mp-6799,LiCa4(BN2)3,2.1934
mp-1202682,LiCa7(GeH)3,0.7113999999999998
mp-686484,LiCa9Mg(PO4)7,4.7063
mp-567344,LiCa9Mn(PO4)7,4.2642000000000015
mp-1020107,LiCaAl3N4,3.0163
mp-6134,LiCaAlF6,7.6448
mp-1020031,LiCaAlN2,2.7797
mp-1095289,LiCaAs,1.1086999999999998
mp-1093673,LiCaAu2,0.03790000000000005
mp-561237,LiCaBO3,5.040100000000002
mp-569501,LiCaBi,0.5790000000000002
mp-565468,LiCaCrF6,4.0967
mp-1017626,LiCaF3,6.7418
mp-1176820,LiCaFe3SnO8,1.9693
mp-12829,LiCaGaF6,6.4003
mp-570948,LiCaGaN2,2.1319
mp-1079935,LiCaH3,2.5179
mp-1020108,LiCaMgSiN3,2.8374
mp-31468,LiCaN,1.3784999999999998
mp-559584,LiCaNiF6,2.3521
mp-1211088,LiCaP,1.3983999999999996
mp-721067,LiCaP3H8O13,5.2237
mp-16804,LiCaPO4,5.1799
mp-1096537,LiCaPb2,0.12670000000000006
mp-40186,LiCaPrTeO6,3.3167
mp-961723,LiCaRh,0.2530999999999999
mp-16264,LiCaSb,0.6443000000000003
mp-39511,LiCaTa2O6F,3.6629
mp-1097074,LiCaTl2,0.045600000000000314
mp-632402,LiCaUF8,0.3838999999999999
mp-1211094,LiCaVF6,2.5579