task_id,pretty_formula,band_gap
mp-1112887,Cs2InSbCl6,0.8763999999999998
mp-1113091,Cs2InSbF6,1.9032
mp-1189428,Cs2IrCl5O,0.9453
mp-1200330,Cs2K2B10O17,4.6139
mp-650532,Cs2K2Cd3O5,1.2431
mp-556400,Cs2K2TeO5,2.0249
mp-541234,Cs2K4Fe2O5,1.5864999999999998
mp-13687,Cs2KAgF6,0.6207999999999999
mp-1113061,Cs2KAlBr6,3.1203
mp-1113059,Cs2KAlCl6,4.5089000000000015
mp-1113057,Cs2KAlI6,1.7447
mp-1112792,Cs2KAsBr6,2.8918
mp-1112625,Cs2KAsCl6,3.4105
mp-1113137,Cs2KAsF6,4.653899999999998
mp-1112793,Cs2KAsI6,2.0323
mp-1112626,Cs2KAuCl6,0.2831
mp-1112599,Cs2KAuF6,0.7756
mp-1112789,Cs2KBiBr6,3.4246
mp-1111877,Cs2KBiCl6,4.008
mp-573204,Cs2KBiF6,4.9469
mp-1113055,Cs2KBiI6,2.5653
mp-1112787,Cs2KCeBr6,0.3140000000000001
mp-1112872,Cs2KCeCl6,0.3423000000000003
mp-1110986,Cs2KCeF6,0.5746000000000002
mp-1112784,Cs2KCeI6,0.2767999999999997
mp-505662,Cs2KCo(CN)6,4.2271
mp-1201008,Cs2KCr(CN)6,2.0011
mp-1205683,Cs2KCrCl6,1.7702
mp-560956,Cs2KCrF6,4.067
mp-6968,Cs2KCuF6,0.8474999999999999
mp-1112785,Cs2KDyCl6,5.1002
mp-1113058,Cs2KErCl6,5.1104
mp-505660,Cs2KFe(CN)6,3.6210000000000004
mp-559454,Cs2KFeF6,4.095599999999999
mp-1112623,Cs2KGaBr6,2.0101
mp-1113050,Cs2KGaCl6,3.2404
mp-989531,Cs2KGaF6,6.0426
mp-1112783,Cs2KGaI6,0.8284000000000001
mp-1113049,Cs2KGdCl6,3.0499
mp-1207104,Cs2KHoCl6,5.1185
mp-1113046,Cs2KInBr6,2.3633
mp-1112759,Cs2KInCl6,3.4837
mp-989639,Cs2KInF6,5.4629
mp-1113045,Cs2KInI6,1.2626
mp-1113044,Cs2KLaCl6,4.7253
mp-1112760,Cs2KLuCl6,5.126200000000001
mp-619127,Cs2KMn3F12,1.9469999999999998
mp-560861,Cs2KMnF6,1.5996
mp-1112871,Cs2KMoBr6,1.5990999999999995
mp-1111876,Cs2KMoCl6,1.6671000000000002
mp-557133,Cs2KMoF6,4.1117
mp-1113040,Cs2KMoI6,1.4527
mp-989580,Cs2KNF6,2.9976000000000003
mp-1095948,Cs2KNa,0.12740000000000018
mp-1112758,Cs2KNdBr6,4.2395
mp-1112753,Cs2KNdCl6,5.0226
mp-1113039,Cs2KNdI6,3.2642
mp-1112754,Cs2KPrBr6,4.2336
mp-1112721,Cs2KPrCl6,5.0013000000000005
mp-1111021,Cs2KPrF6,6.153499999999998
mp-1113035,Cs2KPrI6,3.2581
mp-561561,Cs2KRhF6,2.1034
mp-1112853,Cs2KSbBr6,2.8501000000000003
mp-1111873,Cs2KSbCl6,3.3473
mp-1111020,Cs2KSbF6,4.1813
mp-1112709,Cs2KSbI6,2.343
mp-1113047,Cs2KScBr6,3.2218
mp-571124,Cs2KScCl6,4.0204
mp-1113131,Cs2KScF6,6.8180999999999985
mp-1112710,Cs2KScI6,2.3591
mp-1229170,Cs2KSiF7,5.4613999999999985
mp-1079871,Cs2KSmCl6,5.0514
mp-580631,Cs2KTbCl6,5.0878
mp-1226274,Cs2KTiO2F3,3.8369
mp-1113030,Cs2KTlBr6,1.3749
mp-1113029,Cs2KTlCl6,2.2759
mp-989526,Cs2KTlF6,3.8205
mp-1112692,Cs2KTlI6,0.4688
mp-1112689,Cs2KTmCl6,5.1171000000000015
mp-558895,Cs2KVF6,2.5363
mp-1112842,Cs2KYBr6,4.2852
mp-1112690,Cs2KYCl6,5.1066
mp-6059,Cs2KYF6,6.4639999999999995
mp-1112687,Cs2KYI6,3.2816
mp-40143,Cs2KZrOF5,4.8774
mp-1213735,Cs2La10Ru2I17,0.0064000000000001825
mp-1113585,Cs2LaAgCl6,3.5605999999999995
mp-1113410,Cs2LaAuCl6,2.2752
mp-1213736,Cs2LaBr5,3.3821
mp-1213724,Cs2LaCl5,4.1056
mp-1113523,Cs2LaCuCl6,2.0992
mp-1202786,Cs2LaN5O17,0.2457
mp-572512,Cs2LaTa6(Br5O)3,1.1799
mp-1019606,Cs2Li2B2P4O15,5.4224000000000006
mp-8313,Cs2Li2GeO4,3.4744
mp-504849,Cs2Li2SiO4,3.8531
mp-8294,Cs2Li2TiO4,3.9554
mp-966802,Cs2Li3(BO2)5,4.5348
mp-1196318,Cs2Li3B3P6(PbO12)2,5.2105
mp-571409,Cs2Li3Br5,4.3566
mp-560088,Cs2Li3F5,5.6183999999999985
mp-555140,Cs2Li3GaO4,3.6593
mp-608311,Cs2Li3I5,4.1765
mp-1019607,Cs2Li5(BO2)7,4.357799999999999
mp-13634,Cs2LiAl3F12,7.0872
mp-1206808,Cs2LiAlF6,6.8829
mp-14364,Cs2LiAsO4,3.7302
mp-1112579,Cs2LiAuF6,0.5297999999999999
mp-1111865,Cs2LiBiBr6,2.9154
mp-1111851,Cs2LiBiCl6,3.6075
mp-1110976,Cs2LiBiF6,4.8946000000000005
mp-1112838,Cs2LiBiI6,1.9323
mp-1095674,Cs2LiBr3,4.3506
mp-1111848,Cs2LiCeBr6,0.29090000000000016
mp-1113020,Cs2LiCeCl6,0.3208000000000002
mp-1110975,Cs2LiCeF6,0.5298999999999996
mp-1112680,Cs2LiCeI6,0.2572000000000001
mp-571390,Cs2LiCl3,5.13
mp-6884,Cs2LiCo(CN)6,4.1370000000000005
mp-570502,Cs2LiCr(CN)6,1.8904
mp-1226357,Cs2LiCr3F12,2.9483
mp-1206440,Cs2LiCrF6,4.1173
mp-1113018,Cs2LiDyCl6,5.0917
mp-1111446,Cs2LiErCl6,5.1941
mp-553988,Cs2LiF3,5.659000000000002
mp-6654,Cs2LiGaF6,6.1363
mp-1112624,Cs2LiGdCl6,2.782
mp-989405,Cs2LiInBr6,1.5789
mp-571527,Cs2LiInCl6,3.2276
mp-1113016,Cs2LiInF6,5.227
mp-574653,Cs2LiIr(CN)6,5.4079
mp-1112681,Cs2LiLaCl6,4.4642
mp-570379,Cs2LiLuCl6,5.3389
mp-18722,Cs2LiMnO4,1.818
mp-1111847,Cs2LiMoBr6,1.2684000000000002
mp-1110989,Cs2LiMoCl6,1.5978
mp-1112836,Cs2LiMoI6,0.9856000000000004
mp-989536,Cs2LiNF6,2.7068
mp-573030,Cs2LiNbS4,2.4582
mp-1194993,Cs2LiNd(BO3)2,4.4764
mp-1111845,Cs2LiNdBr6,3.9972
mp-1111841,Cs2LiNdCl6,4.8227
mp-1110973,Cs2LiNdF6,7.0550000000000015
mp-1112834,Cs2LiNdI6,2.9743000000000004
mp-1111839,Cs2LiPrBr6,3.9721
mp-1111836,Cs2LiPrCl6,4.7971
mp-1110972,Cs2LiPrF6,6.9993
mp-1113008,Cs2LiPrI6,2.9609
mp-1111835,Cs2LiSbBr6,2.3396
mp-1111439,Cs2LiSbCl6,2.9508
mp-1110971,Cs2LiSbF6,4.1258
mp-1112673,Cs2LiSbI6,1.7376
mp-1189625,Cs2LiScCl6,3.8134
mp-1112671,Cs2LiSmCl6,4.8953
mp-1112669,Cs2LiTbCl6,5.0434
mp-1112670,Cs2LiTlBr6,0.5505
mp-1112999,Cs2LiTlCl6,1.5236
mp-989562,Cs2LiTlF6,3.4749
mp-1112998,Cs2LiTmCl6,5.2527
mp-1226312,Cs2LiV3F12,2.08
mp-541190,Cs2LiVO4,3.9955
mp-510338,Cs2LiVS4,1.6639000000000002
mp-1111833,Cs2LiYBr6,4.0508
mp-567652,Cs2LiYCl6,4.8986
mp-1110969,Cs2LiYF6,7.266299999999998
mp-1112663,Cs2LiYI6,3.0085
mp-1113542,Cs2LuAgCl6,3.5277
mp-1200277,Cs2Mg(SeO7)2,0.5738999999999999
mp-1213820,Cs2Mg2(MoO4)3,4.2700000000000005
mp-1195571,Cs2Mg2(WO4)3,4.66
mp-568909,Cs2MgCl4,4.9974
mp-7331,Cs2MgFe(CN)6,4.1775
mp-542417,Cs2MgH12(SO7)2,5.0352
mp-779875,Cs2MgH12(SeO7)2,4.1266
mp-644236,Cs2MgH4,3.8165
mp-733936,Cs2MgH8(CO5)2,4.6538
mp-1178409,Cs2MgO2,2.0228
mp-866620,Cs2MgP4(HO2)8,5.3771
mp-1019610,Cs2MgSi5O12,4.5828
mp-1080610,Cs2Mn(Cl2O)2,0.5424
mp-652901,Cs2Mn(PO3)4,4.6555
mp-863753,Cs2Mn(PSe3)2,0.9726
mp-1192359,Cs2Mn(TeS3)2,0.6852999999999998
mp-1213801,Cs2Mn2(MoO4)3,3.2994000000000003
mp-1213854,Cs2Mn2Be3F12,4.9566
mp-1214390,Cs2Mn2Cr3O12,2.0277000000000003
mp-2884,Cs2Mn3S4,0.4763999999999999
mp-3704,Cs2Mn3Se4,0.4400999999999997
mp-5927,Cs2Mn3Te4,0.2483999999999997
mp-556529,Cs2MnBi2S5,1.0505999999999998
mp-600186,Cs2MnBr4,2.5604
mp-1025252,Cs2MnCl4,1.783
mp-1205772,Cs2MnCl6,1.4550999999999998
mp-1206528,Cs2MnF4,3.4569
mp-555223,Cs2MnF5,1.3949
mp-557912,Cs2MnF6,3.2382
mp-1197828,Cs2MnH12(SO7)2,4.1992
mp-1214073,Cs2MnH12(SeO7)2,2.7541
mp-1226311,Cs2MnNiF6,3.743
mp-541559,Cs2MnO4,0.5825
mp-505034,Cs2MnS2,1.1562
mp-1199926,Cs2MnSO4F3,1.5563
mp-573947,Cs2MnSe2,1.243
mp-1203621,Cs2MnSi5O12,3.2917999999999994
mp-22235,Cs2MnSnTe4,0.3822000000000001
mp-610744,Cs2MnTe2,1.0935
mp-639397,Cs2MnV2(BrO3)2,1.859
mp-639410,Cs2MnV2(ClO3)2,2.0944
mp-1193654,Cs2Mo(SO)2,2.3663000000000003
mp-645299,Cs2Mo2O11,2.4142
mp-1193056,Cs2Mo3O10,3.4191000000000003
mp-1214995,Cs2Mo3P3O17,2.278
mp-1196773,Cs2Mo3P5O19,0.4836
mp-1202511,Cs2Mo4O13,3.1447
mp-1201373,Cs2Mo5(P3O11)3,1.4527
mp-1200365,Cs2Mo5O16,3.0764
mp-1200748,Cs2Mo7O22,2.8491
mp-1182795,Cs2MoN(Cl2O)2,1.0684
mp-1194312,Cs2MoO4,4.6361
mp-1213774,Cs2MoO8,1.9624
mp-1194448,Cs2MoS3O,2.147
mp-560635,Cs2MoS4,1.8688
mp-866654,Cs2MoSe4,1.3568
mp-567575,Cs2Na(C2N3)3,4.3919999999999995
mp-559557,Cs2Na2B10O17,4.7125
mp-616507,Cs2Na2IrO4,0.1876000000000002
mp-1019611,Cs2Na2Sr(B3O5)6,5.6254
mp-504852,Cs2Na3InO4,2.0661
mp-562541,Cs2Na3TlO4,1.4570000000000003
mp-709921,Cs2Na4Cu2Si12H4O31,1.0408
mp-1226410,Cs2Na6Al6Ge7O30,0.2584
mp-581862,Cs2NaAl(PO4)2,4.457400000000002
mp-12309,Cs2NaAl3F12,6.9232
mp-1112997,Cs2NaAlCl6,3.9615
mp-6528,Cs2NaAlF6,6.697
mp-989642,Cs2NaAlH6,2.1378000000000004
mp-1197430,Cs2NaAs7,1.4350999999999998
mp-1110566,Cs2NaAsBr6,2.4656
mp-989608,Cs2NaAsCl6,3.062
mp-1112596,Cs2NaAsF6,4.563599999999999
mp-8314,Cs2NaAsO4,3.5275
mp-571248,Cs2NaAu3(CN)6,2.5728
mp-1112661,Cs2NaBiBr6,3.0439999999999996
mp-1080041,Cs2NaBiCl6,3.7163
mp-560790,Cs2NaBiF6,5.021000000000001
mp-1112659,Cs2NaBiI6,2.1074
mp-1112660,Cs2NaCeBr6,0.2960999999999998
mp-1079458,Cs2NaCeCl6,0.32430000000000003
mp-1110982,Cs2NaCeF6,0.5359000000000003
mp-1112656,Cs2NaCeI6,0.26069999999999993
mp-669384,Cs2NaCo(CN)6,4.2881
mp-17165,Cs2NaCr(CN)6,1.9659
mp-1205696,Cs2NaCrCl6,1.5646
mp-557047,Cs2NaCrF6,3.9441
mp-1110563,Cs2NaDyCl6,5.2508
mp-580589,Cs2NaErCl6,5.3479
mp-13816,Cs2NaErF6,6.863899999999999
mp-620924,Cs2NaFeF6,3.8015
mp-1110642,Cs2NaGaBr6,1.4373
mp-1112988,Cs2NaGaCl6,2.6886
mp-6163,Cs2NaGaF6,5.9678
mp-989594,Cs2NaGaH6,1.0882
mp-1213705,Cs2NaGaP2,1.3344999999999998
mp-1112657,Cs2NaGdCl6,2.9127
mp-542951,Cs2NaHoCl6,5.2906
mp-996943,Cs2NaInBr6,1.8935
mp-989571,Cs2NaInCl6,2.9904
mp-13898,Cs2NaInF6,5.303999999999999
mp-989610,Cs2NaInH6,1.2562
mp-1112149,Cs2NaInI6,0.6998
mp-1112014,Cs2NaIrF6,2.0021000000000004
mp-1079096,Cs2NaLaBr6,3.8294
mp-1080017,Cs2NaLaCl6,4.6109
mp-1111824,Cs2NaLuCl6,5.3362
mp-20915,Cs2NaMn(CN)6,0.03109999999999999
mp-1111822,Cs2NaMoBr6,1.3505999999999998
mp-1111434,Cs2NaMoCl6,1.6410999999999998
mp-1112148,Cs2NaMoI6,1.0847
mp-989527,Cs2NaNF6,2.8012
mp-1112145,Cs2NaNdBr6,4.1517
mp-1111821,Cs2NaNdCl6,4.9938
mp-1110981,Cs2NaNdF6,6.7384
mp-1112146,Cs2NaPrBr6,4.1394
mp-1111820,Cs2NaPrCl6,4.9619
mp-1110980,Cs2NaPrF6,6.6204
mp-1112144,Cs2NaPrI6,3.1147
mp-1111979,Cs2NaRhF6,1.7497000000000005
mp-1112142,Cs2NaSbBr6,2.4657
mp-989514,Cs2NaSbCl6,3.0473
mp-1110979,Cs2NaSbF6,4.237
mp-1112140,Cs2NaSbI6,1.8895
mp-1112534,Cs2NaScBr6,3.1082
mp-1111433,Cs2NaScCl6,3.9065
mp-6204,Cs2NaScF6,6.799099999999998
mp-1112141,Cs2NaScI6,2.2294
mp-580541,Cs2NaSmCl6,5.0722000000000005
mp-1114087,Cs2NaTaF6,0.3197000000000001
mp-568670,Cs2NaTbCl6,5.2046
mp-562050,Cs2NaTiF6,0.1036999999999999
mp-1112138,Cs2NaTlBr6,0.8310000000000001
mp-1112527,Cs2NaTlCl6,1.7856
mp-13800,Cs2NaTlF6,3.6228
mp-1112139,Cs2NaTlI6,0.0817
mp-1112567,Cs2NaTmCl6,5.3426
mp-1214014,Cs2NaUBr6,0.008700000000000152
mp-23108,Cs2NaUCl6,0.5004
mp-19447,Cs2NaVO4,3.9493
mp-571467,Cs2NaYBr6,4.2176
mp-23120,Cs2NaYCl6,5.0706
mp-13925,Cs2NaYF6,6.865399999999998
mp-1112137,Cs2NaYI6,3.1517
mp-1201406,Cs2Nb3Cl7O5,2.3095
mp-581217,Cs2Nb4O11,2.9879
mp-569465,Cs2Nb6PbCl18,1.0644
mp-623028,Cs2NbAgS4,2.2195
mp-14637,Cs2NbAgSe4,1.8644
mp-1112641,Cs2NbAuF6,0.0060999999999999934
mp-15223,Cs2NbCuSe4,1.659
mp-8995,Cs2NbF6,0.23919999999999986
mp-1112944,Cs2NdAgBr6,3.1903
mp-1112945,Cs2NdAgCl6,3.6548
mp-1113229,Cs2NdAgF6,3.1671
mp-1113269,Cs2NdAgI6,2.5429
mp-1113409,Cs2NdAuCl6,2.1458
mp-1111885,Cs2NdCuBr6,2.0847
mp-1112884,Cs2NdCuI6,1.7889
mp-1199764,Cs2NdN5O17,2.4625
mp-624571,Cs2Ni(NO3)4,2.943
mp-553980,Cs2Ni(PS3)2,0.5594999999999999
mp-1203005,Cs2Ni2(MoO4)3,3.8997
mp-28486,Cs2Ni3S4,0.8488000000000002
mp-14336,Cs2Ni3Se4,0.6301000000000001
mp-1206689,Cs2NiAs2,0.5461999999999998
mp-689925,Cs2NiF6,2.3912
mp-633571,Cs2NiH12(SO7)2,4.1137
mp-769864,Cs2NiO2,2.6343
mp-573103,Cs2Np(SO5)2,0.2934000000000001
mp-647426,Cs2NpBr6,0.08689999999999998
mp-754973,Cs2NpO3,0.03259999999999952
mp-1025274,Cs2NpO4,0.3134999999999999
mp-7988,Cs2O,0.5856999999999999
mp-7896,Cs2O2,1.6496
mp-643074,Cs2P2H2O7,5.2232
mp-1205610,Cs2P2Pd,1.0451
mp-14652,Cs2P3,0.8419000000000003
mp-1199678,Cs2P4Pd3O14,1.3456
mp-1196015,Cs2PAuS4,2.1895
mp-1199614,Cs2PH4Se3O2,1.6067
mp-6557,Cs2PO3F,4.3991
mp-569060,Cs2PSe5,1.4721000000000002
mp-1105197,Cs2PaF7,4.0427
mp-1213706,Cs2Pb2O3,2.0987000000000005
mp-23425,Cs2PbCl6,1.4904
mp-989549,Cs2PbClF6,0.09899999999999998
mp-1193131,Cs2PbN2(ClO3)2,2.7998
mp-562263,Cs2PbO2,1.8593
mp-21521,Cs2PbO3,1.3911
mp-543024,Cs2Pd(IBr2)2,0.6798000000000001
mp-607298,Cs2Pd(ICl2)2,0.8764000000000001
mp-510268,Cs2Pd3S4,1.3521
mp-11694,Cs2Pd3Se4,1.0684000000000002
mp-1205847,Cs2PdBr6,0.8915
mp-505824,Cs2PdC2,1.7513999999999998
mp-1078085,Cs2PdCl4,1.7557
mp-1206568,Cs2PdCl6,1.5122
mp-504729,Cs2PdF6,2.3065
mp-569066,Cs2PdI6,0.19279999999999986
mp-1213720,Cs2Pr10Os2I17,0.005700000000000038
mp-1213729,Cs2Pr10Ru2I17,0.015499999999999847
mp-1113236,Cs2PrAgCl6,3.6459
mp-1113230,Cs2PrAgF6,3.1366
mp-1112942,Cs2PrAgI6,2.5343
mp-1113408,Cs2PrAuCl6,2.1629
mp-1213713,Cs2PrCl5,4.7847
mp-1113355,Cs2PrCuBr6,2.0604000000000005
mp-1111470,Cs2PrCuCl6,2.3589
mp-1112883,Cs2PrCuI6,1.7763999999999998
mp-13548,Cs2Pt,1.6768
mp-13992,Cs2Pt3S4,1.6488
mp-14338,Cs2Pt3Se4,1.3432
mp-30062,Cs2PtBr6,1.433
mp-505825,Cs2PtC2,1.2698
mp-600193,Cs2PtC2(OF)4,2.4733
mp-1193434,Cs2PtC4(IN2)2,1.4535
mp-29216,Cs2PtCl4,2.0518
mp-23406,Cs2PtCl6,2.1024
mp-9262,Cs2PtF6,2.8139999999999996
mp-23060,Cs2PtI6,0.6483999999999999
mp-622197,Cs2PtS6(O3F)6,2.1952
mp-1078872,Cs2Pu(Cl2O)2,0.1129
mp-571448,Cs2PuCl6,0.3538999999999999
mp-1112531,Cs2RbAlBr6,3.2264
mp-1112525,Cs2RbAlCl6,4.5274
mp-1112133,Cs2RbAlI6,1.8835
mp-1112134,Cs2RbAsBr6,2.8942
mp-1112007,Cs2RbAsCl6,3.3925
mp-1111968,Cs2RbAsF6,4.5162
mp-1112131,Cs2RbAsI6,2.1505
mp-1111977,Cs2RbAuF6,0.7552
mp-1112132,Cs2RbBiBr6,3.4129
mp-1112129,Cs2RbBiCl6,3.9760000000000004
mp-559695,Cs2RbBiF6,4.7749
mp-1112161,Cs2RbBiI6,2.6777
mp-1112520,Cs2RbCeCl6,0.3449
mp-1206535,Cs2RbCuF6,1.0332
mp-1112130,Cs2RbDyCl6,4.9443
mp-1112127,Cs2RbErCl6,4.9466
mp-505661,Cs2RbFe(CN)6,3.6228
mp-1112518,Cs2RbGaBr6,2.1401000000000003
mp-1112517,Cs2RbGaCl6,3.3529
mp-989618,Cs2RbGaF6,5.9392999999999985
mp-1112155,Cs2RbGaI6,0.9753
mp-1112516,Cs2RbGdCl6,3.095
mp-996941,Cs2RbInBr6,2.5058
mp-1112125,Cs2RbInCl6,3.5753000000000004
mp-989605,Cs2RbInF6,5.3728
mp-1112521,Cs2RbInI6,1.3972
mp-1111965,Cs2RbIrF6,2.2444
mp-1112126,Cs2RbLaCl6,4.7784
mp-989519,Cs2RbNF6,2.9602
mp-1097263,Cs2RbNa,0.07000000000000027
mp-1112123,Cs2RbNdCl6,4.8814
mp-1112124,Cs2RbPrCl6,4.8663
mp-1095809,Cs2RbSb,0.000399999999999956
mp-1112121,Cs2RbSbBr6,2.841
mp-1112122,Cs2RbSbCl6,3.3193
mp-1112513,Cs2RbSbF6,4.0185
mp-1112512,Cs2RbSbI6,2.3768
mp-1112119,Cs2RbScBr6,3.2725
mp-1112120,Cs2RbScCl6,4.0572
mp-1111963,Cs2RbScF6,6.5419
mp-1112117,Cs2RbScI6,2.4048
mp-1226147,Cs2RbSiF7,5.5115
mp-1112118,Cs2RbSmCl6,4.9056
mp-1112115,Cs2RbTbCl6,4.9373000000000005
mp-1112116,Cs2RbTlBr6,1.5133
mp-1112004,Cs2RbTlCl6,2.3938
mp-989567,Cs2RbTlF6,3.7422
mp-1112510,Cs2RbTlI6,0.6116
mp-1111479,Cs2RbTmCl6,4.963
mp-1112113,Cs2RbYBr6,4.1715
mp-1112114,Cs2RbYCl6,4.9511
mp-7886,Cs2RbYF6,6.2119
mp-1112507,Cs2RbYI6,3.3296
mp-42022,Cs2RbZrOF5,4.7017
mp-1202505,Cs2Re(ClO)3,2.3338
mp-653954,Cs2Re2S5,0.8111000000000002
mp-651741,Cs2Re2Se5,0.7001999999999997
mp-1214500,Cs2Re3Se4I3,2.0776
mp-567942,Cs2ReCl6,1.2397
mp-1205774,Cs2ReF6,1.812
mp-1096938,Cs2ReO4,0.000199999999999978
mp-1112594,Cs2RhAuF6,0.4849
mp-17546,Cs2RuO4,0.5834000000000001
mp-540703,Cs2S,2.0957
mp-1079600,Cs2S3,1.3989999999999998
mp-1193140,Cs2S5,1.8686000000000005
mp-1188254,Cs2S5O,1.1809999999999998
mp-1213923,Cs2S5O12,0.6442
mp-505782,Cs2SO4,5.0111
mp-572332,Cs2Sb2OF10,3.8704
mp-1078965,Cs2Sb2Pd,0.8815999999999997
mp-1080614,Cs2Sb2Pt,0.7604000000000002
mp-1213742,Cs2Sb2SO5F6,0.3063
mp-27146,Cs2Sb4S7,1.6153000000000004
mp-1226852,Cs2Sb8S13,1.6549999999999998
mp-1112926,Cs2SbAuCl6,0.2817000000000003
mp-1113146,Cs2SbAuF6,0.8003000000000002
mp-1214796,Cs2SbF5,4.7219
mp-1113451,Cs2ScAgBr6,2.755
mp-1112622,Cs2ScAgCl6,3.3165
mp-1113115,Cs2ScAgF6,3.6445
mp-1112938,Cs2ScAgI6,2.0571
mp-1112631,Cs2ScAuBr6,1.5799
mp-1113213,Cs2ScAuCl6,1.8942
mp-1112595,Cs2ScAuF6,1.8506
mp-1112923,Cs2ScAuI6,1.0365
mp-1113181,Cs2ScCuCl6,1.8944
mp-1112591,Cs2ScCuF6,1.8078000000000003
mp-1113520,Cs2ScInBr6,2.3139
mp-1113067,Cs2ScInCl6,2.74
mp-1113138,Cs2ScInF6,4.1661
mp-1113068,Cs2ScInI6,1.9468
mp-1112493,Cs2ScTlBr6,3.0149000000000004
mp-1112000,Cs2ScTlCl6,3.5233
mp-1112337,Cs2ScTlF6,5.1832
mp-1112484,Cs2ScTlI6,2.4146
mp-1011695,Cs2Se,1.7987000000000002
mp-7449,Cs2Se3,0.7396
mp-541055,Cs2Se5,1.0176999999999998
mp-27830,Cs2SeCl6,2.7535
mp-562442,Cs2SeO4,3.8006
mp-995230,Cs2Si(HO2)2,3.8832
mp-1182737,Cs2Si(S2O7)3,5.2696999999999985
mp-562345,Cs2Si2O5,4.2397
mp-542550,Cs2Si2Se5,2.3927
mp-554359,Cs2Si3SnO9,3.7921
mp-573721,Cs2SiAs2,1.0347
mp-1226151,Cs2SiB4O9,4.6244000000000005
mp-4047,Cs2SiF6,6.885199999999998
mp-505734,Cs2SiO3,3.4153
mp-8932,Cs2SiP2,1.27
mp-697078,Cs2SiP4(HO7)2,5.1811
mp-1103520,Cs2SiS3,2.9793000000000003
mp-637251,Cs2SiSe4,1.9254
mp-1112939,Cs2SmAgCl6,3.6596
mp-1112920,Cs2SmAuCl6,2.0556
mp-1111449,Cs2SmCuCl6,2.4047
mp-561641,Cs2Sn(AuS2)2,2.1388
mp-540707,Cs2Sn(GeO3)3,2.6073
mp-505233,Cs2Sn(H2N)6,2.5332
mp-1193049,Cs2Sn(HO2)6,2.5703
mp-561185,Cs2Sn2Hg3S8,1.6112
mp-540796,Cs2Sn2O3,2.5788
mp-1195304,Cs2Sn3(SbS5)2,1.8312000000000004
mp-1226719,Cs2Sn4Se9O,0.3840000000000001
mp-8934,Cs2SnAs2,0.7657999999999996
mp-568403,Cs2SnAs2Se9,0.7168000000000003
mp-641923,Cs2SnBr6,1.4388999999999998
mp-608555,Cs2SnCl6,2.59
mp-7297,Cs2SnF6,5.3373
mp-27636,Cs2SnI6,0.2884
mp-861243,Cs2SnO3,2.386
mp-505141,Cs2SnS14,1.4665
mp-1103379,Cs2SnSe3,1.716
mp-28877,Cs2SnTe4,0.633
mp-866617,Cs2Sr2(CO3)3,4.6054
mp-1019609,Cs2Sr2Li3B3(PO4)6,5.6029
mp-753801,Cs2Sr2O3,2.1019
mp-621930,Cs2SrN12,3.975
mp-14355,Cs2SrP2O7,4.9488
mp-19411,Cs2SrV4O12,2.6751
mp-569879,Cs2Ta6PbCl18,1.4561000000000002
mp-1114070,Cs2TaAgF6,0.30210000000000004
mp-15218,Cs2TaAgS4,2.6338
mp-1113212,Cs2TaAuF6,1.1641
mp-655613,Cs2Tb6Te7N2,0.7322000000000002
mp-1112937,Cs2TbAgCl6,3.6441
mp-1112921,Cs2TbAuCl6,2.0332000000000003
mp-1113207,Cs2TbCuCl6,2.3778
mp-1205840,Cs2TcCl6,1.3202999999999998
mp-1079364,Cs2TcF6,1.8717
mp-1206848,Cs2TcI6,0.7190999999999999
mp-1203879,Cs2Te(H3O5)2,1.5833
mp-624572,Cs2Te(MoO4)3,2.5756
mp-505464,Cs2Te13,0.4802000000000004
mp-504924,Cs2Te2O5,2.6609000000000003
mp-505634,Cs2Te3,0.6368999999999998
mp-574138,Cs2Te3As,0.8325
mp-1203081,Cs2Te4O9,2.6091
mp-23465,Cs2TeCl6,2.7815000000000003
mp-1201918,Cs2TeH6(ClO3)2,3.2548
mp-1215093,Cs2TeH6SeO10,3.3042
mp-614803,Cs2TeO3,3.5313000000000003
mp-669353,Cs2TeO4,2.8284
mp-561647,Cs2TeOF4,5.0193
mp-1229058,Cs2TeP2H8O13,3.5573
mp-1199233,Cs2TePO10,0.012699999999999934
mp-1202720,Cs2TeS3,2.4090000000000003
mp-1213764,Cs2TeSO10,0.014299999999999981
mp-1192509,Cs2Th(AsO4)2,3.6126
mp-640389,Cs2Th(PS3)3,2.2753
mp-1204133,Cs2Th(Si2O5)3,4.8079
mp-1204762,Cs2Th2P2Se13,1.6041999999999998
mp-27501,Cs2ThCl6,4.6919
mp-10488,Cs2Ti(AgS2)2,1.6088
mp-10489,Cs2Ti(CuSe2)2,1.3708999999999998
mp-16805,Cs2Ti(GeO3)3,2.9514
mp-14864,Cs2Ti(PO4)2,3.4477
mp-6748,Cs2Ti(Si2O5)3,3.5085
mp-1226157,Cs2Ti(WO4)3,2.7668
mp-680170,Cs2Ti2S9,1.0651
mp-27828,Cs2TiCl6,2.2291
mp-1195388,Cs2TiCu3F12,0.1412
mp-1206662,Cs2TiI6,0.8823000000000001
mp-1178403,Cs2TiO3,3.4081
mp-1203715,Cs2TiP4O13,2.6701
mp-3247,Cs2TiS3,1.2717
mp-705308,Cs2TiV3(PO6)3,2.0845
mp-1113150,Cs2TlAgF6,0.8037
mp-1112112,Cs2TlAsBr6,1.235
mp-1112502,Cs2TlAsCl6,1.6727999999999998
mp-1112503,Cs2TlAsF6,2.7019
mp-1112544,Cs2TlAsI6,1.0046000000000002
mp-1112498,Cs2TlBiBr6,1.7359000000000002
mp-1112109,Cs2TlBiCl6,2.2087000000000003
mp-557664,Cs2TlBiF6,3.0672999999999995
mp-1112501,Cs2TlBiI6,1.3773000000000002
mp-541696,Cs2TlCl5,1.9854000000000005
mp-1196614,Cs2TlCl5O,1.8049
mp-628819,Cs2TlFeF6,2.8622
mp-1112492,Cs2TlGaBr6,1.5442
mp-1112002,Cs2TlGaCl6,2.4724
mp-989558,Cs2TlGaF6,4.766
mp-989553,Cs2TlGaH6,0.3826999999999998
mp-1112110,Cs2TlGaI6,0.5740000000000001
mp-1213821,Cs2TlHCl5,0.4353
mp-996944,Cs2TlInBr6,1.8255
mp-1112490,Cs2TlInCl6,2.5104
mp-989537,Cs2TlInF6,3.9896
mp-1112107,Cs2TlInI6,0.8922000000000001
mp-560710,Cs2TlMoF6,3.9316
mp-1112340,Cs2TlRhF6,1.7532
mp-1112108,Cs2TlSbBr6,1.2294000000000005
mp-1112003,Cs2TlSbCl6,1.6545
mp-1112551,Cs2TlSbF6,2.486800000000001
mp-1112105,Cs2TlSbI6,0.9367
mp-1113440,Cs2TmAgCl6,3.5693
mp-1213743,Cs2TmCl5,5.0267
mp-1213772,Cs2TmCl5O,0.9723
mp-1111447,Cs2TmCuCl6,2.2551
mp-572551,Cs2U(Br2O)2,1.9396
mp-541275,Cs2U(Cl2O)2,2.3217
mp-1193333,Cs2U(PO5)2,0.010899999999999993
mp-1197866,Cs2U(Si2O5)3,0.1791999999999998
mp-581584,Cs2U(SiO4)2,2.2215000000000003
mp-700135,Cs2U2Mo3O16,2.4489
mp-548479,Cs2U2O7,1.4975999999999998
mp-562366,Cs2U3(TeO7)2,1.8529
mp-1202678,Cs2U3P6(HO5)4,0.20719999999999986
mp-1196336,Cs2UAs2O9,2.375
mp-1195416,Cs2UC2S2(NO2)4,1.4186
mp-23077,Cs2UCl6,0.13680000000000006
mp-1213795,Cs2UF7,0.895
mp-571275,Cs2UHg2Se5,0.1322000000000001
mp-606213,Cs2UMoO7,1.935
mp-1198784,Cs2UNb6(Cl5O)3,0.10789999999999987
mp-2991,Cs2UO4,1.8211
mp-561356,Cs2UP2O9,2.152
mp-560134,Cs2V(PO4)2,2.9681
mp-1204913,Cs2V2H2O7,3.0863
mp-1192739,Cs2V3O8,2.1002
mp-566366,Cs2V4O9,2.3216
mp-1198581,Cs2V5H5O16,2.4757
mp-617180,Cs2V5O13,1.5096
mp-8684,Cs2VAgS4,1.4191000000000005
mp-554848,Cs2VF6,2.0371
mp-1226442,Cs2VH2(OF2)2,2.8087