task_id,pretty_formula,band_gap
mp-1227253,CaU3Ti8O24,0.12729999999999994
mp-1198907,CaUCu(PO7)2,0.1219
mp-1227064,CaUF6,0.1073000000000004
mp-1213956,CaUI6,0.2173999999999996
mp-3960,CaUO4,2.1516
mp-1043355,CaV(GeO3)2,0.3807
mp-1045800,CaV(PO3)4,2.9581
mp-1043605,CaV(Si2O5)2,1.9167000000000003
mp-1202545,CaV(Si2O7)2,0.7658000000000001
mp-1133299,CaV(SiO3)2,1.9704
mvc-12822,CaV2(BiO5)2,0.6345000000000001
mp-1041444,CaV2(CuO4)2,0.21660000000000013
mp-1049264,CaV2(PO4)2,2.0147000000000004
mp-1214166,CaV2(PO4)3,0.7835999999999999
mp-566640,CaV2(PO5)2,1.9083
mp-19632,CaV2CoO7,2.0284
mp-566974,CaV2CuO7,0.4783
mvc-12291,CaV2Ni2(P2O9)2,1.0885000000000002
mp-1193743,CaV2O10,0.1939
mp-540837,CaV2O4,1.5384000000000002
mp-19305,CaV2O5,1.9003
mvc-11947,CaV2O6,1.6773
mp-743511,CaV2P2(H4O7)2,2.2858
mp-25793,CaV2P2O9,1.5080000000000005
mp-735589,CaV2P3HO12,1.5189
mp-1044537,CaV3(P2O7)2,2.6225
mp-1047854,CaV3P3O13,1.4322
mp-25168,CaV4(AgO6)2,1.9174
mvc-12294,CaV4(CoO7)2,1.1289
mvc-12278,CaV4(CuO7)2,0.5805
mp-1048685,CaV4O10,0.8309
mp-1044005,CaV4O6,0.2776000000000005
mvc-12238,CaV4O8,0.6888000000000001
mp-18866,CaV4O9,2.4882000000000004
mp-775527,CaV5H19O23,2.3427
mvc-2603,CaV5O7,0.43129999999999935
mp-1227738,CaV8O24,0.2171
mp-1042925,CaVAs2O7,2.2981
mvc-5576,CaVAsO5,1.6481
mp-565311,CaVBiO5,3.2484
mvc-14106,CaVBiO6,0.5953999999999999
mp-1213971,CaVCuHO5,0.41949999999999976
mvc-3446,CaVF4,2.6739
mvc-14225,CaVF5,2.2978
mp-25785,CaVNiP2O9,1.9742
mvc-13158,CaVO3,0.5509000000000004
mvc-5422,CaVP2O7,3.1152
mp-1201439,CaVSi4(H2O5)3,0.6522
mp-1214832,CaVSi4H12O11,1.8537
mp-1198008,CaVSi4H8O15,3.1429
mp-1182493,CaVSi4O15,0.8313999999999999
mp-1213869,CaVSiO5,1.0856000000000003
mvc-4914,CaW2O5,1.5564999999999998
mp-1042313,CaW2O7,4.2676
mp-1044516,CaW3O7,1.0276000000000003
mp-1041414,CaW4O9,0.9723000000000006
mvc-2873,CaW5O7,0.3620999999999999
mp-1213997,CaW6NCl18,0.0134000000000003
mvc-14340,CaWF4,1.2806000000000002
mvc-14218,CaWF5,3.4857
mvc-15846,CaWF6,3.7402
mp-989616,CaWN3,0.5612000000000004
mvc-3996,CaWO3,2.3161000000000005
mp-19426,CaWO4,4.3443
mp-1214430,CaY(CO4)2,0.03919999999999999
mp-1227308,CaY2(GeO3)4,3.2043000000000004
mp-1227185,CaY2BeO5,4.030200000000002
mp-753815,CaY2O4,4.1546
mp-1096336,CaYAg2,0.06800000000000006
mp-1227119,CaYAl3O7,4.2531
mp-1227044,CaYAlO4,3.6692
mp-1213894,CaYBO4,4.3043000000000005
mp-1227159,CaYGa3O7,3.1588
mp-1038002,CaYMg30O32,0.33309999999999995
mp-1227362,CaYP7O20,5.3546
mp-1096135,CaYPb2,0.05200000000000005
mp-1093735,CaYTl2,0.0444
mp-1227162,CaYb3Mn4O12,0.4693000000000001
mp-1183595,CaYbTl2,0.2443999999999997
mp-1078391,CaZn(CO3)2,3.9729
mp-12326,CaZn(GeO3)2,2.471
mp-6693,CaZn(SiO3)2,4.0551
mp-1202252,CaZn2(H5O4)2,3.4428
mp-18308,CaZn2(PO4)2,3.7872
mp-1182035,CaZn2(PO5)2,0.965
mp-722941,CaZn2H12(BrO)6,3.5949
mp-1084796,CaZn3Se4,1.3082000000000005
mp-24018,CaZnAsHO5,2.622
mp-1096705,CaZnAu2,1.0267
mp-1214021,CaZnF2,1.9976
mp-5104,CaZnF4,5.1236
mp-1227007,CaZnO2,1.5949
mp-722378,CaZnP2H5O8,0.19390000000000007
mp-7204,CaZnSO,2.6830000000000003
mp-1018089,CaZnSe2,1.5191
mp-554905,CaZnSi3O8,4.0894
mp-696853,CaZnSiH2O5,3.64
mp-1105632,CaZnSiO5,0.20900000000000007
mp-554495,CaZr(PO4)2,4.3302999999999985
mp-1214457,CaZr(SiO3)6,0.07739999999999997
mp-1227884,CaZr2PbO6,3.1269
mp-556440,CaZr4(PO4)6,4.1838
mp-554190,CaZr4O9,3.8366
mp-559642,CaZrAl9BO18,4.8628
mp-1025456,CaZrF6,6.672700000000002
mp-644295,CaZrGeO5,3.8972
mp-1029267,CaZrN2,0.19179999999999972
mp-1227538,CaZrNbFeO7,2.2072000000000003
mp-4571,CaZrO3,3.8263
mp-7781,CaZrS3,1.1877000000000004
mp-7079,CaZrSi2O7,4.5532
mp-1227600,CaZrSi3H4O11,4.6689
mp-1214069,CaZrSi6H2O15,2.7487000000000004
mp-1204163,CaZrSi6O17,0.867
mp-1227163,CaZrTi2O7,2.8891000000000004
mp-1226968,CaZrV2O8,2.5116
mp-1025377,Cd(AgI2)2,1.7715
mp-754454,Cd(AgO2)2,0.5699000000000001
mp-7128,Cd(AsO3)2,1.9253
mp-29169,Cd(AuF4)2,1.7605
mp-557715,Cd(AuF6)2,1.8022
mp-778103,Cd(BO2)2,3.3861
mp-676545,Cd(Bi9O14)2,0.3770000000000007
mp-541433,Cd(BiO2)2,2.7092
mp-1182026,Cd(Br3N2)2,0.2984
mp-1068359,Cd(BrN)2,0.6769000000000001
mp-1181899,Cd(BrO2)2,1.2813
mp-11646,Cd(C2N3)2,4.5428
mp-34656,Cd(CN)2,5.9948
mp-1214952,Cd(CO)6,9.999999999976694e-05
mp-555064,Cd(CO2)2,3.298
mp-1182262,Cd(ClO2)2,0.10970000000000013
mp-771736,Cd(CoO2)2,0.4608000000000003
mp-772099,Cd(CuO2)2,0.3201999999999998
mp-24940,Cd(FeO2)2,1.8014
mp-36641,Cd(Ga3Te5)2,0.6335999999999999
mp-1213982,Cd(GaCl4)2,3.5535
mp-3443,Cd(GaO2)2,1.5793
mp-4452,Cd(GaS2)2,2.1141000000000005
mp-3772,Cd(GaSe2)2,1.3457
mp-13949,Cd(GaTe2)2,1.0357000000000005
mp-604337,Cd(HN2)4,3.2882
mp-625094,Cd(HO)2,1.6945
mp-1079041,Cd(IN)4,0.153
mp-27640,Cd(IO3)2,3.2739000000000003
mp-616218,Cd(In2I3)2,1.5345
mp-559200,Cd(InS2)2,1.0509
mp-22304,Cd(InSe2)2,0.9545
mp-21374,Cd(InTe2)2,0.8481000000000005
mp-1215014,Cd(N2Cl)6,0.7977000000000007
mp-1070147,Cd(NCl)2,1.1988
mp-27198,Cd(NO3)2,3.4581
mp-1182373,Cd(NO4)2,1.8441
mp-1192817,Cd(NO5)2,1.2238000000000002
mp-770597,Cd(NiO2)2,0.125
mp-1196424,Cd(PN2)2,1.2423000000000002
mp-4659,Cd(PO3)2,3.9273
mp-1196598,Cd(PO4)2,0.4668999999999999
mp-1182043,Cd(PO5)2,1.9205
mp-8212,Cd(PtO2)3,0.2256999999999998
mp-14100,Cd(RhO2)2,0.8366999999999996
mp-8922,Cd(SbO3)2,1.4136000000000006
mp-29052,Cd(W3Br7)2,2.0397
mp-690912,Cd10As6HClO25,1.1326999999999998
mp-1204954,Cd12Ge17(B4O29)2,1.8848
mp-680136,Cd13(In13Se27)2,0.000500000000000167
mp-1227896,Cd15As9Cl2O37,0.9239
mp-30941,Cd2(TeO3)3,1.9309
mp-10486,Cd2As2O7,1.5821999999999998
mp-28900,Cd2As3Br,0.7680999999999998
mp-27577,Cd2As3I,0.7611999999999997
mp-27776,Cd2AsCl2,1.0820000000000003
mp-1198923,Cd2AsHO5,1.5848
mp-541677,Cd2AsO4F,1.6984
mp-7210,Cd2B2O5,2.4657
mp-1194787,Cd2B6PbO12,3.5976
mp-1201604,Cd2BO4,1.2823
mp-675654,Cd2Bi6O11,0.7775999999999996
mp-556653,Cd2BiAsO6,2.0527999999999995
mp-1204349,Cd2Cl4O5,0.7093999999999998
mp-13361,Cd2Cu(PO4)2,0.6916
mp-1227581,Cd2Cu10Sb4S13,0.3870000000000005
mp-570514,Cd2Fe(CN)6,2.609
mp-1227014,Cd2Ga2Se5,1.1916000000000002
mp-1226974,Cd2GaAg(SeS)2,0.006699999999999928
mp-6356,Cd2GaAgS4,1.0420999999999998
mp-1226972,Cd2GaAgSe4,0.03170000000000006
mp-1226976,Cd2GaCuS4,0.008500000000000174
mp-1227001,Cd2GaCuSe4,0.08520000000000016
mp-1227008,Cd2GaCuTe4,0.3018000000000001
mp-29213,Cd2Ge7O16,2.1004
mp-5712,Cd2GeAs4,0.04079999999999995
mp-3917,Cd2GeO4,1.0893
mp-1197532,Cd2H11C2NCl5O2,0.2407000000000001
mp-1204115,Cd2H18C8O17,2.7932
mp-558011,Cd2H2SO6,2.7608
mp-24015,Cd2H3ClO3,2.4219
mp-1227201,Cd2Hg13(As2Cl3)4,1.4003
mp-1213924,Cd2Hg2H(SO5)2,1.0521
mp-1213917,Cd2Hg2H(SeO5)2,0.9445
mp-1226985,Cd2In3Ag3Te8,0.1339999999999999
mp-1226962,Cd2InAgS4,0.17689999999999986
mp-1227031,Cd2InCuSe4,0.055099999999999934
mp-1213890,Cd2Mo3O8,1.5774
mp-1226964,Cd2MoWO8,2.7138
mp-1182834,Cd2Ni(ClO2)6,0.4357
mp-1227591,Cd2Ni2C8N12O,1.0282999999999998
mp-1194532,Cd2Ni6Te3PbO18,1.7407000000000004
mp-568932,Cd2Os(CN)6,2.5374
mp-1201288,Cd2P2H10CCl2O11,3.7121
mp-27686,Cd2P2O7,2.7107
mp-29245,Cd2P3Br,1.1423
mp-29246,Cd2P3Cl,1.1977000000000002
mp-29244,Cd2P3I,1.0992000000000002
mp-1214873,Cd2P4PdO8,1.7551
mp-29276,Cd2P6O17,4.2535
mp-31276,Cd2PCl2,1.4004
mp-557910,Cd2PO4F,2.3693
mp-568373,Cd2Ru(CN)6,2.6444
mp-1205273,Cd2S2O9,0.1899
mp-1200364,Cd2S3(NO6)2,0.009299999999999864
mp-1196645,Cd2SO6,0.1834
mp-1191189,Cd2Sb2O7,0.3927999999999998
mp-1227013,Cd2Sb6S11,0.33809999999999985
mp-541108,Cd2Si(P2O7)2,4.0752
mp-4530,Cd2SiO4,1.4749
mp-1226967,Cd2SnGeAs4,0.1453000000000002
mp-5966,Cd2SnO4,0.3997999999999999
mp-30940,Cd2Te2O7,1.7272999999999996
mp-950214,Cd2TeCl2O3,3.3711
mp-1226950,Cd2TeS,0.05410000000000004
mp-1226952,Cd2TeSe,0.4215
mp-13602,Cd3(AsO4)2,1.6354
mp-1198909,Cd3(BO2)7,0.03560000000000008
mp-1192091,Cd3(BO3)2,1.6177
mp-29297,Cd3(ClO)2,1.1707
mp-1227011,Cd3(CuP5)2,1.1474000000000002
mp-1226990,Cd3(InSe3)2,0.7604
mp-1182653,Cd3(P3O14)2,0.5016999999999999
mp-680761,Cd3(PO4)2,2.3908
mp-1203548,Cd3(SeO3)4,0.1414
mp-27899,Cd3AsCl3,1.4485
mp-676464,Cd3AsI3,0.8399000000000001
mp-1196945,Cd3B4(PbO4)3,2.7019
mp-1195436,Cd3BPO7,2.0479000000000003
mp-1227386,Cd3Co2(CN)12,0.027899999999999814
mp-1215138,Cd3Fe2(GeO4)3,1.9098
mp-1213979,Cd3Ga2(GeO4)3,1.7468
mp-1202482,Cd3H18S4N2O21,3.6991
mp-1214359,Cd3H28C12(N15O)2,2.3738
mp-697981,Cd3H2CSeO8,2.763
mp-1229317,Cd3H36C10N5Cl11,2.1217
mp-1214032,Cd3H8(SO4)3,0.31919999999999993
mp-29415,Cd3PCl3,1.8279
mp-1226891,Cd3PI3,1.2931
mp-1200930,Cd3Pb2Se4(IO6)2,2.7997
mp-1182631,Cd3S3O20,1.8224
mp-542117,Cd3Se3O10,3.068
mp-1226884,Cd3Si2Pb3O10,1.3541
mp-13820,Cd3SiO5,0.9679
mp-14243,Cd3TeO6,0.4990000000000001
mp-1214272,Cd4As2Cl3,0.8852999999999999
mp-1214033,Cd4AsPI3,1.4676
mp-755260,Cd4B6O13,2.4314
mp-685907,Cd4Bi2O7,0.5824000000000003
mp-1226929,Cd4CoS5,0.10299999999999998
mp-1227026,Cd4FeS5,0.033999999999999815
mp-1226966,Cd4Ge(SeS)3,1.0703
mp-5151,Cd4GeS6,1.3530000000000002
mp-18163,Cd4GeSe6,0.7534000000000001
mp-1226897,Cd4HgSe5,0.05890000000000006
mp-1226872,Cd4Mo3WO16,2.4865
mp-1226936,Cd4MoW3O16,2.7927
mp-745114,Cd4NiH20(ClO)10,3.7564
mp-28855,Cd4OF6,1.899
mp-8921,Cd4P6SN12,2.9889
mp-1013726,Cd4SF6,1.8553
mp-1182250,Cd4Se4O15,0.0050000000000001155
mp-18179,Cd4SiS6,1.4340000000000002
mp-17791,Cd4SiSe6,0.8187
mp-1226783,Cd4Te3Se,0.4619
mp-1226837,Cd4Te5Pb,1.2069
mp-558759,Cd4Te6Cl6O13,3.3117
mp-1021494,Cd5(S2Cl)2,1.5338
mp-1182036,Cd5(SiO5)2,0.0015000000000000568
mp-1226955,Cd5Bi6(Cl3O2)4,2.4908
mp-1214030,Cd5Fe2(P2O7)4,1.7059000000000002
mp-1227196,Cd5Ge(PO6)2,1.8825
mp-1215066,Cd5H18C8N20(Cl2O)2,2.8605
mp-566657,Cd5Mo2(P2O7)4,2.5954
mp-23643,Cd5P3ClO12,2.1606
mp-1226956,Cd5P3O13,0.16979999999999995
mp-1227191,Cd5Si(PO6)2,2.0381
mp-1213943,Cd5Si2PO12,0.016199999999999992
mp-1226846,Cd5Te4S,0.2569999999999999
mp-1226820,Cd5TeS4,0.4819999999999998
mp-23476,Cd7(P2Cl3)2,1.7985
mp-29576,Cd7P10,1.2371000000000003
mp-683967,Cd7Te7Cl8O17,3.3694
mp-554105,CdAg2GeS4,0.5693000000000001
mp-1226771,CdAg2Sn3S8,0.27380000000000004
mp-1226777,CdAg2SnSe4,0.00029999999999996696
mp-542200,CdAg4Ge2S7,0.6329000000000002
mp-7373,CdAs,0.0928
mp-557926,CdAs2(XeF5)4,2.3694
mp-651073,CdAs2C4SN4(OF6)2,3.5227
mp-24302,CdAs2HF13,3.9677
mp-557010,CdAs2S18N12(OF2)6,2.1983
mp-558288,CdAs2S2(OF3)4,3.4895
mp-1226754,CdAsP,0.4173
mp-557364,CdB2F8,5.4624
mp-559282,CdB2XeF10,2.8814
mp-13603,CdB4O7,3.9877
mp-1226996,CdBi12(Cl7O6)2,1.2934
mp-1226909,CdBi8(Br5O4)2,0.6145000000000005
mp-1226921,CdBi8(Cl5O4)2,1.4648000000000003
mp-1196929,CdBiBF10,2.0107
mp-1226758,CdBiBrO2,1.3241999999999998
mp-550553,CdBiClO2,2.8418
mp-1226753,CdBiIO2,1.5821
mp-755478,CdBiO3,0.762
mp-561079,CdBiS2Br,1.95
mp-558849,CdBiS2Cl,1.9160000000000004
mp-570590,CdBiSe2Br,1.3868
mp-570961,CdBiSe2I,1.2705000000000002
mp-1192278,CdC2(NO)4,2.8063
mp-540903,CdC2(SN)2,3.2981000000000003
mp-1182178,CdC2O7,0.8455
mp-1182432,CdC2S2(IN2)2,1.0456
mp-1182214,CdC2S2(N4Cl)2,0.9055
mp-1214165,CdC2S2(NO)6,0.4340999999999999
mp-1199754,CdC3NCl3,1.9384
mp-1197974,CdC3NO6,1.6229
mp-1193461,CdC4S2(NO)4,1.3707
mp-1214110,CdC4S4(N5O3)2,0.040100000000000025
mp-1182555,CdC7S3N4,0.012500000000000178
mp-10969,CdCN2,2.2933
mp-1196021,CdCN3Cl2O,0.1511
mp-1095515,CdCNCl3,2.9619
mp-4385,CdCO3,2.6226000000000003
mp-1106319,CdCSBr2N3O,0.4317000000000001
mp-1206433,CdCl6,0.1191999999999993
mp-1213911,CdCo(PO3)4,3.1345
mp-1227073,CdCo3(PO3)8,2.4523
mp-1213938,CdCoF5,1.8973
mp-24430,CdCoH18N6Cl5,2.5006
mp-1195655,CdCu(SeO3)2,0.6626000000000001
mp-560100,CdCu2(BO3)2,0.10600000000000033
mp-13982,CdCu2GeS4,0.3622000000000005
mp-10967,CdCu2GeSe4,0.05410000000000004
mp-6449,CdCu2SiS4,0.9802999999999996
mp-1087540,CdCu2SiTe4,0.2930000000000001
mp-1226867,CdCu2Sn3S8,0.2538999999999998
mp-9075,CdCuF4,0.6796
mp-753954,CdCuH8(ClO)4,0.6342000000000001
mp-1226928,CdCuP2O7,0.2393000000000001
mp-1097581,CdCuPd2,0.2132000000000005
mp-1226823,CdFe(PS3)2,0.24929999999999986
mp-703231,CdFe2Sb2(PO4)6,2.8426
mp-1227130,CdFe3(SnS4)2,0.01639999999999997
mp-1226789,CdFe4NiO8,1.479
mp-558869,CdFeC5N6O,2.7390000000000003
mp-1093747,CdFeRh2,0.2555999999999998
mp-705344,CdFeSn(PO4)3,2.5692
mp-561283,CdGaH14O7F5,4.338
mp-555027,CdGe(BiO3)2,1.8998000000000004
mp-7762,CdGe2O5,1.4592
mp-1226788,CdGeAsP,0.08530000000000015
mp-2951,CdGeO3,1.5283000000000002
mp-695422,CdGePH3O7,0.06590000000000007
mp-863012,CdH10C3NCl3,4.1544
mp-1191972,CdH10S2(NO2)4,4.3584000000000005
mp-698416,CdH12C2(NCl2)2,3.4379
mp-1197904,CdH12C2S2(N3Cl2)2,3.5509
mp-567467,CdH12C4Br3N,3.4554
mp-569847,CdH16C4(Br2N)2,3.713
mp-568812,CdH16C4(NCl2)2,3.3967
mp-699261,CdH16C4S4(N4Cl)2,3.1973000000000003
mp-1201285,CdH16C4S4(N5O3)2,3.1001
mp-722467,CdH18Se4(N2O7)2,3.568
mp-644265,CdH2(CO2)2,4.2202
mp-756998,CdH2(SO4)2,4.189
mp-690848,CdH20C2S2(NO2)6,0.2538
mp-24273,CdH20C4S4(NO6)2,4.837
mp-707501,CdH24C4(BrN2)6,3.4344
mp-1199936,CdH2C4(S3N2)2,2.3681
mp-697264,CdH2SeO4,3.796
mp-721583,CdH2SeO5,2.5048
mp-1194501,CdH3Cl3O,2.9584
mp-722862,CdH3NO5,3.2456
mp-24509,CdH4(BrO4)2,3.9715
mp-1182013,CdH4(C2O3)2,2.6794
mp-541375,CdH4Br3N,2.5461
mp-697033,CdH4CN2Cl2O,3.5746
mp-1198870,CdH4CS2(NO3)2,0.05690000000000006
mp-24356,CdH4NCl3,3.5397
mp-722381,CdH4S2O5,3.117
mp-1198034,CdH5Br3N2,2.8287
mp-24749,CdH6(CO3)2,4.5223
mp-1226730,CdH6(NCl)2,3.5383000000000004
mp-707251,CdH6(SO4)4,0.5212
mp-695891,CdH6C(BrN)3,3.1908000000000003
mp-698349,CdH6C4(S2O)2,2.3204
mp-1195497,CdH7C3NO6,4.7502
mp-1182065,CdH8(NO5)2,3.5655
mp-600182,CdH8C2Br3N,3.3781
mp-570587,CdH8C2NCl3,4.0526
mp-697260,CdH8C2S2(BrN2)2,3.1704
mp-1204467,CdH8C4(NCl)2,0.8336
mp-24307,CdH8C4(S2N3)2,3.2788
mp-698468,CdH9C2(N2O5)2,1.8031
mp-1227599,CdH9C3SBrCl2O,3.7799
mp-1214331,CdHC2(NO)4,2.9704
mp-644222,CdHClO,2.4635
mp-560904,CdHg2SO6,1.3171
mp-556369,CdHg2SeO6,0.9315
mp-680331,CdHg3C6S6(N3Cl)2,2.0621
mp-570838,CdHg4(AsI2)2,0.4599000000000001
mp-557580,CdHg4C6S6(Br2N3)2,1.8659999999999999
mp-1226731,CdHg4Se5,1.0219
mp-567910,CdHg6(As2Br3)2,1.3414
mp-1227680,CdHg6(Sb2I3)2,1.1201
mp-569454,CdHgAsBr,1.0028
mp-556367,CdHgC4(SN)4,2.4633
mp-542943,CdHgC4(SeN)4,2.2448
mp-9146,CdHgO2,0.3682
mp-1181848,CdHgS4,0.6736
mp-1214466,CdI3N2,0.4882000000000001
mp-1025115,CdIBr,2.4508
mp-1191962,CdIClO3,3.3887
mp-1226914,CdIn2(SeS)2,0.4057
mp-19803,CdIn2O4,0.9137000000000004
mp-1226840,CdIn2SeS3,0.6742999999999997
mp-1226727,CdInAgTe3,0.02389999999999981
mp-505222,CdInBr3,2.2185
mp-630773,CdInGaS4,0.25780000000000003
mp-19039,CdMoO4,2.4682
mp-565194,CdMoPO6,0.7143999999999999
mp-570471,CdN6,2.7759
mp-1080000,CdNCl3,2.0607
mp-1105795,CdNF3,2.2926
mp-1191894,CdNO4,0.042100000000000026
mp-1213935,CdNi(PO3)4,4.3411
mp-745186,CdNi2H24(ClO2)6,4.0435
mp-2310,CdO2,1.2535000000000005
mp-1214259,CdP14Pb,1.3806000000000005
mp-1197015,CdP2(H4O5)2,4.2666
mp-24316,CdP2(HO)4,4.3757
mp-1238387,CdP2(HO2)4,4.2093
mp-24407,CdP2H6O7,4.8402
mp-556171,CdP2Xe5F22,2.4129
mp-772228,CdP4O11,4.3777
mp-505364,CdPH6NO5,3.2768
mp-1204110,CdPHO3,3.4162
mp-1181929,CdPNO5,2.4112
mp-5328,CdPS3,1.7451
mp-1079559,CdPSe3,1.2072
mp-1077904,CdPb2(ClO)2,2.6745
mp-1226877,CdPb3Se4,0.7417999999999996
mp-37216,CdPbF6,2.3364000000000003
mp-1226761,CdPbS2,1.092899999999999
mp-606650,CdPd(CN)6,4.0255
mp-1096277,CdPd2Pb,0.5955999999999997
mp-1096217,CdPdAu2,0.5387999999999993
mp-1226775,CdPdF4,0.4292
mp-13984,CdPdF6,1.7751
mp-1213964,CdPt(CN)6,5.4267
mp-5858,CdPtF6,2.1901
mp-707538,CdRe2(H2O5)2,0.1914
mp-1214630,CdRe2C2(N2O5)2,1.5002
mp-1215040,CdRe2C4S4(NO)8,0.4910000000000001
mp-1214657,CdRe2C6(N6O7)2,0.8132000000000001
mp-733747,CdRe2H16C4S4(NO)8,2.3899
mp-1203976,CdRe2H26C6S6(N4O3)3,2.5209
mp-733848,CdRe2H8C2(N2O5)2,2.7675
mp-1093730,CdRh2Pb,0.0019000000000000128
mp-1095440,CdS2,1.2312000000000003
mp-17586,CdS2O7,4.0360999999999985
mp-8516,CdSO3,3.3333
mp-8459,CdSO4,2.8625
mp-1198900,CdSb5OF28,0.11870000000000006
mp-560411,CdSb6(S2I)4,1.5565000000000002
mp-1096681,CdSbRh2,0.07319999999999993
mp-559588,CdSbS2Br,1.5284999999999995
mp-557049,CdSbS2Cl,1.6373000000000002
mp-1095493,CdSe2,0.7103000000000002
mp-9178,CdSe2O5,2.8994
mp-1201724,CdSe2O9,0.02329999999999988
mp-559203,CdSeO3,3.4047
mp-761036,CdSeO4,1.6838
mp-1198755,CdSi3AsH27C9I2,3.2214
mp-604998,CdSi3PH27C9Br2,3.6784
mp-1205257,CdSi3PH27C9I2,3.2848
mp-560560,CdSiO3,2.573
mp-1183864,CdSn2H12(OF)6,4.1622
mp-1214431,CdSn3F6,0.8666
mp-13907,CdSnF6,3.8504
mp-1199087,CdSnP14,1.4387
mp-1097428,CdSnPd2,0.6446999999999998
mp-10063,CdSnSb2,0.007000000000000117
mp-1203009,CdTe(Pb3O5)2,2.0549
mp-565932,CdTeMoO6,3.1894
mp-19387,CdWO4,3.2878000000000003
mp-1197724,Ce(Al10V)2,0.07429999999999913
mp-20003,Ce(Al2Cu)4,0.010200000000001095
mp-1214275,Ce(AlBr4)3,0.2167
mp-1021508,Ce(As3Ru)4,0.20690000000000008
mp-20376,Ce(BO2)3,0.19449999999999967
mp-672205,Ce(C2N3)3,0.1972999999999998
mp-1201526,Ce(CO2)3,0.02760000000000007
mp-1192979,Ce(ClO)3,0.3864
mp-768918,Ce(ClO4)4,1.4696
mp-20933,Ce(CoGe)2,0.001100000000000101
mp-20173,Ce(CuGe)2,0.0014000000000002901
mp-1021509,Ce(FeAs3)4,0.2656000000000001
mp-1006322,Ce(FeB)4,0.039100000000000364
mp-16272,Ce(FeP3)4,0.4451000000000001
mp-1181682,Ce(FeSb3)4,0.09890000000000043
mp-778759,Ce(IO3)2,0.6031000000000004
mp-510464,Ce(IO3)3,0.08059999999999956
mp-23493,Ce(IO3)4,1.4876
mp-676489,Ce(Mo3S4)2,0.20500000000000007
mp-675769,Ce(Mo3Se4)2,0.06329999999999991
mp-1182846,Ce(NF3)2,0.3451
mp-510125,Ce(Ni2Sn)2,0.003500000000000725
mp-1021505,Ce(P3Os)4,0.2373000000000012
mp-10069,Ce(P3Ru)4,0.2073999999999998
mp-5843,Ce(PO3)3,0.22279999999999944
mp-1019593,Ce(PO3)4,1.2294
mp-21947,Ce(SO4)2,1.0343000000000002
mp-1201840,Ce(SO6)2,0.10309999999999996
mp-541090,Ce(SeO3)2,1.2671
mp-21838,Ce(SeO4)2,1.2847
mp-20752,Ce(Sn3Ru2)2,0.0028000000000005802
mp-4599,Ce(TeO3)2,1.3596999999999997
mp-779925,Ce(WO4)2,1.5929000000000002
mp-1198305,Ce10Se14O,0.00790000000000024
mp-531564,Ce10Y22O53,1.8209
mp-505619,Ce11O20,0.0007999999999999119
mp-685970,Ce14Gd18O55,1.4871000000000003
mp-531963,Ce14Y18O55,1.6835999999999998
mp-1213885,Ce2(Al3Ir)3,0.038299999999999564
mp-1213916,Ce2(Al3Rh)3,0.003899999999999793
mp-1213877,Ce2(Ga3Ir)3,0.01999999999999957
mp-1227172,Ce2(MoO4)3,0.009599999999999831
mp-1182126,Ce2(N2O9)3,0.9834
mp-541851,Ce2(Ni7B2)3,0.008599999999999497
mp-1203667,Ce2(SO6)3,0.2987
mp-505428,Ce2(WO4)3,0.07929999999999993
mp-1202030,Ce2AlSi2O9,0.10570000000000056
mp-1228669,Ce2B12Br2O27,0.034
mp-1019592,Ce2B8O15,0.15829999999999966
mp-673848,Ce2Dy2O7,1.6279
mp-1229315,Ce2Gd2O7,1.4405
mp-1196411,Ce2H16S3O20,0.1783999999999999
mp-22810,Ce2MgCu2,0.004700000000000593
mp-648971,Ce2Mo4O15,0.05379999999999985
mp-1199771,Ce2Nb2S7O30,0.7013
mp-754846,Ce2Nd2O7,2.0728
mp-1182813,Ce2S3O16,0.5637
mp-1190870,Ce2S4O17,0.11880000000000003
mp-1205034,Ce2Se4O17,0.11790000000000013
mp-1069558,Ce2SeN2,0.8943000000000003
mp-542663,Ce2SiTeO4,0.0015000000000000568
mp-752400,Ce2Sm2O7,2.0295
mp-1213882,Ce2Ta2O9,1.5227
mp-1214188,Ce2Ta3(SeO4)2,0.02729999999999944
mp-1229283,Ce2Te(Mo2O15)3,0.0343
mp-1195865,Ce2Te4Cl2O11,1.446
mp-1196951,Ce2Te7Br2O17,1.1031
mp-1203316,Ce2Te7Cl2O17,1.3018999999999998
mp-1201322,Ce2TeMo6(H6O7)6,0.11739999999999995
mp-1226807,Ce2ThO6,1.8189
mp-36699,Ce2Y2O7,1.7347
mp-17587,Ce2Zn2Ni5,0.01049999999999951
mp-1226797,Ce2ZrO6,1.7434000000000005
mp-542824,Ce3(AgSn)4,0.00020000000000042206
mp-22623,Ce3(CuGe)4,9.999999999976694e-05
mp-1191432,Ce3AlCdS7,0.014299999999999537
mp-1192897,Ce3AlZnS7,0.016600000000000392
mp-582142,Ce3Bi4Pd3,0.19980000000000064
mp-1105392,Ce3Bi4Pt3,0.2337000000000007
mp-580802,Ce3CCl5,0.00199999999999978
mp-675192,Ce3Dy2O9,1.8936
mp-866517,Ce3MgAlS7,0.04489999999999928
mp-676077,Ce3Nd2O9,1.9569
mp-510126,Ce3Ni2Sn7,0.0015999999999998238
mp-510277,Ce3S2O3,0.0021000000000004353
mp-543033,Ce3S3N,0.000900000000000567
mp-1202383,Ce3S3O16,0.0484
mp-1188608,Ce3Sb4Pt3,0.2710999999999997
mp-542133,Ce3Si2S8Cl,0.002799999999999692
mp-1229323,Ce3SiCl5O4,0.03139999999999965
mp-30155,Ce3SiPd5,0.00019999999999953388
mp-1226979,Ce3SnO8,1.4740000000000002
mp-1213823,Ce3Ta(Cl3O2)2,0.044599999999999966
mp-754058,Ce3Th2O9,0.06949999999999967
mp-766570,Ce3Th4O14,1.8084
mp-755046,Ce3Y4O12,1.4851
mp-1019589,Ce3Zr5O16,1.7776
mp-1019591,Ce3ZrO8,1.8145
mp-1096905,Ce4Al2O9,0.029399999999999867
mp-1019597,Ce4B14O27,0.05100000000000016
mp-1228140,Ce4C10O31,0.7468999999999999
mp-1204612,Ce4CI6N,0.009400000000000295
mp-1193030,Ce4CoS7,0.008799999999999919