task_id,pretty_formula,band_gap
mp-1222689,Li2Ti2MnNiO8,0.8939999999999997
mp-849444,Li2Ti2NiO6,2.8433
mp-756294,Li2Ti2O5,3.7434
mp-753863,Li2Ti2S5,1.1803000000000003
mp-763671,Li2Ti2V3O10,0.5897000000000001
mp-762531,Li2Ti2V5O12,0.8546999999999998
mp-763679,Li2Ti2VO6,0.27830000000000066
mp-768110,Li2Ti3CoO8,2.4416
mp-1177863,Li2Ti3FeO8,1.9835000000000005
mp-775865,Li2Ti3MnO8,2.3697
mp-761375,Li2Ti3Ni(PO4)6,0.01339999999999997
mp-775326,Li2Ti3NiO8,2.7066
mp-1190132,Li2Ti3O7,2.9959
mp-758037,Li2Ti3P9O28,0.006699999999999928
mp-772416,Li2Ti3Sn(PO4)6,2.5061
mp-779116,Li2Ti3SnO8,1.2354000000000005
mp-763640,Li2Ti3V3O12,0.9737999999999998
mp-775161,Li2Ti3VO8,0.5531999999999995
mp-774797,Li2Ti3ZnO8,3.1268
mp-744463,Li2Ti4Co(AsO5)4,2.7286
mp-1222854,Li2Ti4Co(PO5)4,2.1959
mp-743567,Li2Ti4Ni(PO5)4,2.9429
mp-772151,Li2Ti4O9,2.8924
mp-1190625,Li2Ti6O13,2.8699
mp-558619,Li2Ti6PbO14,2.764
mp-759849,Li2Ti6Zn3O16,2.8292
mp-759382,Li2Ti7Nb6O30,2.2723
mp-756565,Li2Ti7O15,1.4827999999999997
mp-769646,Li2TiCo2O5,1.5688
mp-1177858,Li2TiCoO4,1.0722
mp-1223017,Li2TiCr(PO4)3,2.2794
mp-767334,Li2TiCr2O6,2.236
mp-1178000,Li2TiCr3O8,0.7126000000000001
mp-7603,Li2TiF6,4.3715
mp-1222972,Li2TiFe(PO4)3,2.3702
mp-775791,Li2TiFe2O5,1.4602999999999997
mp-776147,Li2TiFe3O8,0.003699999999999815
mp-765697,Li2TiFeO4,0.9124
mp-13182,Li2TiGeO5,3.4593000000000003
mp-1222732,Li2TiMn2NiO8,0.6209000000000002
mp-770956,Li2TiMn2O5,0.6481000000000003
mp-776053,Li2TiMn2O6,1.5566
mp-775166,Li2TiMn3O8,0.7382
mp-770852,Li2TiNi2O5,2.0374000000000003
mp-775328,Li2TiNi3O8,0.6650999999999998
mp-764019,Li2TiNiO4,1.6021999999999998
mp-2931,Li2TiO3,3.0339
mp-757305,Li2TiP3O10,0.14110000000000025
mp-25400,Li2TiPCO7,0.23119999999999985
mp-769287,Li2TiS2O,2.2463
mp-6332,Li2TiSiO5,3.2153
mp-769380,Li2TiSn3(PO4)6,2.7486999999999995
mp-756117,Li2TiTeO6,2.3234000000000004
mp-763708,Li2TiV2O6,1.2730999999999997
mp-775564,Li2TiV3O8,1.2315000000000005
mp-775618,Li2TiV5O12,0.6604000000000001
mp-771002,Li2TiVO4,0.4813999999999998
mp-770760,Li2TiVO5,2.2828
mp-865713,Li2TlBi,0.006599999999999717
mp-754034,Li2TlPCO7,1.4530999999999998
mp-1096079,Li2TlRh,0.1734
mp-1184973,Li2TlSb,0.7664
mp-1093843,Li2TlZn,0.008199999999999985
mp-768218,Li2TmPCO7,4.8642
mp-565208,Li2U(MoO5)2,2.4047
mp-763413,Li2U(WO5)2,1.5677
mp-558910,Li2U3(PO5)4,2.1386000000000003
mp-1202011,Li2U3(SeO10)2,0.17789999999999995
mp-559539,Li2U3P2O15,2.2683
mp-565883,Li2U3V2O15,2.2727
mp-566621,Li2U4W4O25,1.9108
mp-579243,Li2U5MoO19,1.5605000000000002
mp-1222748,Li2UBr6,0.1499999999999999
mp-676749,Li2UCl6,0.1938999999999997
mp-9607,Li2UO4,2.1005
mp-772429,Li2V(BO2)5,2.8421000000000003
mp-765404,Li2V(CO3)2,2.4204
mp-763499,Li2V(CO3)3,2.3544
mp-762760,Li2V(FeO3)2,1.4749
mp-697754,Li2V(PO3)4,3.0199
mp-540330,Li2V(PO3)5,2.2923
mp-540259,Li2V(PO4)2,1.2978999999999998
mp-762865,Li2V(SO4)2,3.5672
mp-767582,Li2V(Si2O5)2,1.5854999999999997
mp-775292,Li2V(Si2O5)3,1.9506
mp-863901,Li2V(SiO3)2,1.6437
mp-761465,Li2V(SiO3)3,2.1059
mp-774176,Li2V12O29,0.011499999999999844
mp-770191,Li2V2(SO4)3,3.5936
mp-774008,Li2V2(Si2O5)3,1.0580999999999996
mp-772470,Li2V2(SiO3)3,1.5839
mp-773393,Li2V2CoO6,1.1425999999999998
mp-1177840,Li2V2Cr(PO4)3,0.6547000000000005
mp-1177848,Li2V2Cu(PO4)3,0.39899999999999997
mp-767206,Li2V2FeO6,1.0057999999999998
mp-764224,Li2V2O5F2,2.4443
mp-765272,Li2V2OF5,0.7305999999999999
mp-765832,Li2V2OF6,1.6207
mp-850983,Li2V2P2(H4O5)3,2.33
mp-1202181,Li2V2P2O11,1.7685
mp-763654,Li2V2P2O9,1.7252999999999998
mp-1177876,Li2V2P4H6O17,1.9434
mp-779872,Li2V2P7HO24,1.4868
mp-756394,Li2V2S5,0.14500000000000002
mp-767492,Li2V2Si2O9,1.5602999999999998
mp-761443,Li2V2Si4O11,2.1719
mp-761778,Li2V2Si5O13,2.3586
mp-771932,Li2V2SiGeO10,2.1096
mp-771573,Li2V2Sn(PO4)3,0.2662
mp-775067,Li2V2SnO6,1.8274
mp-763569,Li2V3(CO3)6,0.7005999999999999
mp-765791,Li2V3(OF)4,1.2204
mp-763475,Li2V3(P2O7)2,2.5200000000000005
mp-773679,Li2V3(PO4)3,0.4490000000000003
mp-771389,Li2V3BiO8,0.9152999999999998
mp-762378,Li2V3CoO8,1.6223
mp-778232,Li2V3Cr2O12,0.0411
mp-774288,Li2V3CrO8,1.0848
mp-775553,Li2V3CuO8,0.6970000000000001
mp-778241,Li2V3F8,2.2001
mp-776146,Li2V3FeO8,1.0216000000000005
mp-777896,Li2V3NiO8,1.6475999999999995
mp-764201,Li2V3O3F5,1.251
mp-762971,Li2V3O6,1.1098000000000003
mp-773375,Li2V3O7,2.4621
mp-773325,Li2V3O8,1.6302
mp-850076,Li2V3P4(HO4)4,2.383
mp-850740,Li2V3P4H4O19,1.7805000000000002
mp-762397,Li2V3P5O18,1.0574
mp-763445,Li2V3P9O28,1.9376
mp-772006,Li2V3SbO8,1.193
mp-767778,Li2V3Si3O10,1.925
mp-776870,Li2V3SnO8,1.2406
mp-775204,Li2V3WO8,1.4997000000000005
mp-779968,Li2V4CrCuO12,0.6000000000000001
mp-1177805,Li2V4CuNiO12,0.018299999999999983
mp-766905,Li2V4O3F8,1.0325000000000002
mp-766147,Li2V4OF12,1.6858
mp-765082,Li2V4P4O15,2.114
mp-767720,Li2V4Si4O13,1.9007
mp-763552,Li2V5(PO4)4,2.5774
mp-772588,Li2V5B3O13,1.9401
mp-782662,Li2V5Cr2O12,1.2826999999999995
mp-776487,Li2V5CuO12,0.5398999999999998
mp-776323,Li2V5NiO12,0.7702
mp-762287,Li2V5O10,0.6202000000000001
mp-773362,Li2V6O15,0.0696000000000001
mp-772603,Li2VAsCO7,2.0674
mp-770867,Li2VBO4,1.8957
mp-772254,Li2VBPO7,1.7224000000000002
mp-1177806,Li2VCO5,1.6234000000000002
mp-685606,Li2VCl4,1.1057999999999997
mp-775098,Li2VCo3O8,0.2413000000000003
mp-770971,Li2VCoO4,1.4373999999999998
mp-765399,Li2VCoO5,0.6293
mp-767163,Li2VCr(P2O7)2,2.1866
mp-850093,Li2VCr2O6,1.3087
mp-1177800,Li2VCr3O8,0.955
mp-776136,Li2VCrO4,0.975
mp-767007,Li2VCrP2(HO5)2,2.1467
mp-765064,Li2VCrP2(O4F)2,1.9782
mp-778060,Li2VF4,2.7537000000000003
mp-767940,Li2VF5,2.3963
mp-767932,Li2VF6,2.1121
mp-762787,Li2VF7,1.7343000000000002
mp-764299,Li2VFe(P2O7)2,1.8139
mp-861602,Li2VFe(PO4)2,2.5625
mp-773776,Li2VFe3O8,1.3039
mp-1177771,Li2VFeO4,1.0265000000000004
mp-769963,Li2VFeO5,1.8911
mp-765063,Li2VFeP2(HO5)2,1.4812000000000003
mp-764571,Li2VFeP2(O4F)2,1.6913
mp-771679,Li2VGa3O8,2.2332
mp-770981,Li2VGaO4,1.6450000000000005
mp-18809,Li2VGeO5,2.1485
mp-770536,Li2VH2OF5,2.5167
mp-761302,Li2VNi(PO4)2,1.6594999999999995
mp-767023,Li2VNiO4,1.6752999999999996
mp-774411,Li2VO2,1.9118000000000004
mp-764686,Li2VO2F,1.7955
mp-772563,Li2VO2F3,2.5101
mp-774192,Li2VO3,1.6959
mp-765550,Li2VO3F,2.5474
mp-766739,Li2VOF3,2.3625000000000003
mp-780857,Li2VOF4,1.6283
mp-765925,Li2VOF5,2.8337000000000003
mp-780754,Li2VP2HO8,2.0855
mp-777495,Li2VP2O7,2.7579
mp-762188,Li2VP3O10,2.1159
mp-780300,Li2VP4(H2O3)6,2.6006
mp-763755,Li2VP4(H4O5)4,2.523
mp-780332,Li2VP4(HO2)8,2.7263
mp-704203,Li2VP4O13,1.8286
mp-770949,Li2VPCO7,2.2484
mp-778560,Li2VPHO5,2.6783999999999994
mp-776064,Li2VPO4F,2.6846
mp-1147744,Li2VPO5,1.5208
mp-617172,Li2VPO6,3.1365
mp-769602,Li2VSO4F3,2.237
mp-766988,Li2VSi2O7,1.7176000000000005
mp-767616,Li2VSi3O8,2.9841999999999995
mp-761317,Li2VSi4O11,2.2167000000000003
mp-761733,Li2VSi7O16,1.5127999999999997
mp-770348,Li2VSiCO7,1.8635
mp-767596,Li2VSiO4,1.6609999999999996
mp-18860,Li2VSiO5,2.3621
mp-769854,Li2VSn(PO4)2,2.5809
mp-772400,Li2W(OF2)2,4.1690000000000005
mp-540541,Li2W2O7,3.9960000000000004
mp-1202844,Li2WO12,0.0060999999999999934
mp-18902,Li2WO4,4.877
mp-753195,Li2WS4,1.9871
mp-1096646,Li2YGa,0.04719999999999969
mp-768220,Li2YPCO7,4.8196
mp-1210963,Li2Zn2(MoO4)3,3.1504
mp-1210825,Li2Zn2W2O9,2.7621
mp-772981,Li2Zn3(Ge3O8)2,2.5146000000000006
mp-1093889,Li2ZnAg,0.4451000000000001
mp-28829,Li2ZnBr4,3.7769999999999997
mp-1096253,Li2ZnCd,0.6681999999999999
mp-1222618,Li2ZnCdP2,0.8794
mp-23416,Li2ZnCl4,4.6751000000000005
mp-774007,Li2ZnCr3(SO4)6,0.7164000000000001
mp-1096722,Li2ZnCu,0.4672999999999998
mp-771869,Li2ZnFe(PO4)2,3.4097000000000004
mp-1096442,Li2ZnGa,0.0376000000000003
mp-8184,Li2ZnGeO4,3.1053
mp-1210804,Li2ZnGeS4,2.1764
mp-1095895,Li2ZnHg,0.6648000000000001
mp-23497,Li2ZnI4,3.1982
mp-1096552,Li2ZnIn,0.03200000000000003
mp-1093569,Li2ZnPd,0.009199999999999877
mp-17288,Li2ZnSiO4,3.7869
mp-555965,Li2ZnSn3O8,1.9407
mp-773052,Li2Zr2(PO4)3,0.1670000000000007
mp-772105,Li2Zr2O5,3.886800000000001
mp-1223743,Li2Zr4As3(PO8)3,3.9927
mp-1222826,Li2Zr6MnCl15,1.0966
mp-4002,Li2ZrF6,6.4773999999999985
mp-767488,Li2ZrFe(PO4)3,2.4566
mp-3216,Li2ZrN2,1.5618999999999996
mp-4156,Li2ZrO3,3.7336
mp-6782,Li2ZrTeO6,2.7792
mp-775446,Li3(CoO2)5,0.2635000000000001
mp-769726,Li3(FeO2)4,0.6909999999999998
mp-762427,Li3(FeO2)5,0.4722999999999997
mp-686087,Li3(Nb2Cl5)8,0.023499999999999854
mp-769727,Li3(NiO2)4,0.2483999999999997
mp-762386,Li3(NiO2)5,0.4962999999999997
mp-34355,Li31Zr2As13,0.0012999999999996348
mp-34541,Li31Zr2P13,0.002299999999999969
mp-35091,Li31Zr2Sb13,0.018200000000000216
mp-779327,Li32Mn11Cr5O48,1.0094000000000003
mp-778798,Li32Mn13Cr3O48,1.2401000000000002
mp-779232,Li32Mn3Cr13O48,0.8376999999999999
mp-1177991,Li32Mn5Cr11O48,0.8260000000000001
mp-779768,Li32Ti11Cr5O48,1.2148
mp-1177824,Li32Ti13Cr3O48,1.4911
mp-778043,Li32Ti3Cr13O48,0.9914
mp-779761,Li32Ti5Cr11O48,0.7584999999999997
mp-530670,Li34(YSb2)13,0.019699999999999385
mp-853186,Li35(FeO4)8,0.1133
mp-759449,Li3Ag2F5,1.5188
mp-758861,Li3AgF4,2.6452
mp-6097,Li3Al(BO3)2,4.8248
mp-1222590,Li3Al(CoO3)2,0.9166
mp-1177725,Li3Al(FeO3)2,2.1068
mp-16506,Li3Al2,0.2427000000000001
mp-1222591,Li3Al2CoO6,0.8795999999999999
mp-861573,Li3Al2CrO6,3.7770000000000006
mp-770727,Li3Al2FeO6,2.6281000000000003
mp-770102,Li3Al2VO6,1.9796
mp-695635,Li3Al3P3H2O14F,5.7714
mp-771900,Li3AlCoO4,1.9464
mp-770586,Li3AlCrO5,1.9649
mp-15254,Li3AlF6,7.6884000000000015
mp-772439,Li3AlFeO4,2.4242
mp-770691,Li3AlFeO5,0.2058
mp-6765,Li3AlGeO5,3.9692
mp-31096,Li3AlH6,3.5929
mp-565625,Li3AlMo2(AsO7)2,2.8901
mp-13944,Li3AlN2,2.9371
mp-770491,Li3AlNiO4,2.4289000000000005
mp-1020023,Li3AlSiO5,4.7208000000000006
mp-757,Li3As,0.6364999999999998
mp-680395,Li3As7,1.3268999999999995
mp-1199218,Li3As7(H3N)13,1.8092
mp-1111074,Li3AsF6,4.1137000000000015
mp-1196446,Li3AsH16(SO2)4,2.3134
mp-866667,Li3AsH36(SeN3)4,1.8941
mp-9197,Li3AsO4,4.1268
mp-28471,Li3AsS3,2.2848999999999995
mp-1110580,Li3AuF6,0.4087
mp-7471,Li3AuO3,1.8711
mp-15999,Li3AuS2,2.0985
mp-1020022,Li3B(PO4)2,6.1272
mp-1020014,Li3B11O18,5.5447
mp-770402,Li3B2SbO6,3.12
mp-1232407,Li3B3(H8N)2,5.9495000000000005
mp-1199091,Li3B5(HO5)2,5.8719
mp-16828,Li3B7O12,5.6047
mp-1203033,Li3B8O15,0.04220000000000002
mp-655001,Li3BH6,0.8740000000000001
mp-5001,Li3BN2,3.3675999999999995
mp-27275,Li3BO3,5.1473
mp-5614,Li3BS3,3.0495
mp-771341,Li3BePCO7,5.3538000000000014
mp-768820,Li3Bi(BO3)2,3.4538
mp-1101536,Li3Bi(PO4)2,3.8059
mp-768798,Li3Bi2(BO3)3,3.3562
mp-684504,Li3Bi2(PO4)3,3.8819
mp-26245,Li3Bi2P5O18,0.18110000000000004
mp-759263,Li3Bi3(PO4)4,3.4515
mp-778111,Li3Bi3P8O29,0.5346
mp-26835,Li3Bi5(PO4)6,4.0023
mp-768715,Li3BiB4O9,3.9286
mp-777730,Li3BiB8O15,4.0048
mp-769868,Li3BiH8O7,4.0181
mp-28510,Li3BiO3,2.4379
mp-774702,Li3BiO4,1.3994999999999995
mp-753720,Li3BiS3,2.4456999999999995
mp-766422,Li3BiS4,1.6645
mp-28593,Li3BrO,4.277500000000002
mp-569112,Li3CaMnN3,0.07319999999999993
mp-768169,Li3CaPCO7,4.872999999999998
mp-1211185,Li3Ce2(BO3)3,0.06079999999999953
mp-1223687,Li3Ce4B12(H12Cl)4,0.009000000000000008
mp-20063,Li3Ce5Ge4,0.000600000000000378
mp-985585,Li3ClO,4.6766000000000005
mp-770196,Li3Co(BO2)5,3.0380000000000003
mp-769782,Li3Co(BO3)2,1.1768
mp-772317,Li3Co(NO2)6,2.3955
mp-781675,Li3Co(OF)2,1.2644
mp-31579,Li3Co(PO4)2,0.8124
mp-764094,Li3Co13O5F19,2.2250000000000005
mp-767064,Li3Co2(CO3)4,0.6341
mp-585308,Li3Co2(PO4)3,1.1008000000000002
mp-1173960,Li3Co2O5,0.6320000000000001
mp-849429,Li3Co2OF5,1.5356
mp-1177710,Li3Co2P2(O4F)2,0.1471
mp-31618,Li3Co2P5O16,3.1084
mp-1222636,Li3Co2RuO6,0.04760000000000009
mp-775107,Li3Co2SbO6,0.5606999999999998
mp-1177755,Li3Co2SnO6,0.0499000000000005
mp-540168,Li3Co3(PO4)4,0.3836000000000001
mp-765761,Li3Co3OF7,2.6273
mp-772208,Li3Co3SbO8,0.35050000000000026
mp-772004,Li3Co3TeO8,0.7909000000000002
mp-771395,Li3Co4(BO3)4,0.44320000000000026
mp-850266,Li3Co4SbO8,1.2593000000000003
mp-769806,Li3Co4SnO8,0.1045000000000007
mp-782684,Li3Co4WO8,1.3286999999999995
mp-782687,Li3Co5OF11,2.4204
mp-1177708,Li3Co8(OF3)4,0.4592999999999999
mp-770229,Li3CoBO4,1.7308000000000003
mp-774300,Li3CoNi3O8,0.09489999999999997
mp-763914,Li3CoO2F,1.6606999999999998
mp-769852,Li3CoO3,1.2294
mp-764050,Li3CoOF3,0.10860000000000004
mp-25490,Li3CoPCO7,2.7458
mp-1222819,Li3CoRuO5,0.14070000000000027
mp-771492,Li3CoSiBO7,0.02519999999999989
mp-771415,Li3CoSiCO7,1.1529
mp-763492,Li3CoSiO5,1.1762
mp-765261,Li3Cr(BO3)2,3.1140000000000003
mp-765400,Li3Cr(CO3)3,2.1942
mp-761831,Li3Cr(CoO3)2,0.6308999999999996
mp-771661,Li3Cr(FeO3)2,1.706
mp-31723,Li3Cr(PO4)2,2.7819000000000003
mp-762876,Li3Cr(Si2O5)3,3.7775
mp-771093,Li3Cr10Fe5O24,1.4123
mp-743984,Li3Cr13Ni3(SO4)24,2.2487
mp-779404,Li3Cr2(AsO4)3,2.6701999999999995
mp-763114,Li3Cr2(CoO4)2,0.0743999999999998
mp-780017,Li3Cr2(FeO4)2,0.6440000000000001
mp-1012879,Li3Cr2(GeO4)3,0.019400000000000084
mp-851278,Li3Cr2(PO4)3,2.7987
mp-778433,Li3Cr2(PS4)3,1.2946
mp-766809,Li3Cr2CoO6,0.7767
mp-997512,Li3Cr2CuO6,0.4118000000000004
mp-1177772,Li3Cr2Fe3O10,1.0638999999999998
mp-773312,Li3Cr2FeO6,1.8841
mp-763241,Li3Cr2P2(CO7)2,0.11119999999999997
mp-1177724,Li3Cr2P2(O4F)2,1.3305000000000002
mp-767354,Li3Cr2P4HO14,3.1522
mp-540364,Li3Cr2P5O18,0.05979999999999985
mp-766730,Li3Cr3(CoO6)2,0.7384999999999999
mp-774301,Li3Cr3(NiO6)2,0.7284999999999999
mp-780336,Li3Cr3(PO4)4,1.976
mp-765438,Li3Cr3CoO8,0.9782000000000002
mp-780020,Li3Cr3FeO8,0.7277
mp-771374,Li3Cr3GaO8,0.6843000000000004
mp-770877,Li3Cr3NiO8,0.3500000000000001
mp-773368,Li3Cr3SiO8,2.9838000000000005
mp-773209,Li3Cr4FeO8,1.0703999999999994
mp-771288,Li3Cr4O8,0.7363
mp-762697,Li3Cr4P2O8F9,2.4033
mp-705371,Li3Cr4P9O32,0.5308999999999999
mp-1210973,Li3Cr4PH3O16,2.577
mp-761306,Li3CrB4O9,2.1422
mp-772733,Li3CrBAsO7,2.8933
mp-769973,Li3CrBO5,1.9829
mp-770034,Li3CrBPO7,3.1695999999999995
mp-769773,Li3CrClO4,2.6207000000000003
mp-764806,Li3CrCo3O8,0.2248000000000001
mp-561396,Li3CrF6,3.9644
mp-776855,Li3CrH12(CO3)6,3.3544
mp-770755,Li3CrO3,1.0049
mp-762840,Li3CrP2HO8,2.822
mp-540458,Li3CrP2O9,0.007000000000000006
mp-25510,Li3CrPCO7,2.8924000000000003
mp-762463,Li3CrSi2O7,2.715
mp-773206,Li3CrSiBO7,1.0319999999999998
mp-774236,Li3CrSiCO7,3.113
mp-765411,Li3CrSiO5,3.3511999999999995
mp-504348,Li3Cu(PO4)2,0.0431
mp-761021,Li3Cu(TeO3)4,0.4291999999999998
mp-760002,Li3Cu2F7,0.4478
mp-761910,Li3Cu2F8,0.007500000000000062
mp-1177736,Li3Cu2Ni5O12,0.12440000000000008
mp-25871,Li3Cu2P5O16,0.2537999999999998
mp-767480,Li3Cu2SbO6,0.02980000000000072
mp-761098,Li3Cu3(PO4)2,1.0093999999999994
mp-770818,Li3Cu5O4,1.3603
mp-768589,Li3CuAsCO7,0.14360000000000014
mp-1194301,Li3CuB3O7,0.5132999999999999
mp-758689,Li3CuF4,0.8418999999999999
mp-759433,Li3CuF5,0.5449
mp-760255,Li3CuF6,0.7167000000000001
mp-756495,Li3CuO2,2.5540000000000003
mp-19970,Li3CuO3,1.1780000000000002
mp-781753,Li3CuP2O7,1.2101999999999995
mp-25460,Li3CuPCO7,0.1737000000000002
mp-758891,Li3CuPO5,0.23329999999999984
mp-1177695,Li3CuS2,2.0875
mp-774745,Li3CuS3,0.6119999999999999
mp-767395,Li3CuSbO5,0.4336000000000002
mp-758844,Li3CuSiO4,0.8529999999999998
mp-1211772,Li3Dy(NO3)6,3.0921000000000003
mp-1210935,Li3Dy3(TeO6)2,3.1809000000000003
mp-559129,Li3Er(NO3)6,3.1147
mp-1210989,Li3Er3(TeO6)2,3.1817
mp-1222492,Li3ErBr6,4.4954
mp-676361,Li3ErCl6,5.2109000000000005
mp-1098016,Li3Eu2(BO3)3,0.011700000000000002
mp-761304,Li3Fe(BO2)5,3.972
mp-773213,Li3Fe(BO3)2,2.5723000000000003
mp-766641,Li3Fe(CO3)3,2.3735
mp-761602,Li3Fe(CoO3)2,0.5338000000000003
mp-770093,Li3Fe(CuO3)2,0.07679999999999998
mp-1222986,Li3Fe(MoO4)3,2.2783
mp-778787,Li3Fe(OF)2,2.5174000000000003
mp-773399,Li3Fe(PO4)2,2.474
mp-766714,Li3Fe(Si2O5)3,3.3774999999999995
mp-764475,Li3Fe10O7F9,1.7534
mp-556256,Li3Fe2(AsO4)3,2.5266
mp-763378,Li3Fe2(CO3)4,1.7107
mp-765004,Li3Fe2(CO4)2,2.0546
mp-1177761,Li3Fe2(CoO4)2,0.7182
mp-1177682,Li3Fe2(OF)3,0.8167
mp-1177912,Li3Fe2(P2O7)2,1.3198000000000003
mp-997542,Li3Fe2(PO3)7,4.0116999999999985
mp-762826,Li3Fe2(PO4)3,2.3801
mp-1177702,Li3Fe2(SiO4)2,1.3438
mp-761592,Li3Fe2CoO6,0.4305999999999997
mp-773288,Li3Fe2CuO6,0.6053000000000001
mp-777444,Li3Fe2F7,3.4986
mp-775687,Li3Fe2F9,3.9426
mp-773547,Li3Fe2OF5,2.8480000000000003
mp-770207,Li3Fe2P2(CO7)2,0.013800000000000008
mp-1177665,Li3Fe2P2(O4F)2,1.4232
mp-763761,Li3Fe2P4HO14,4.0951
mp-31885,Li3Fe2P5O16,3.9374
mp-767662,Li3Fe3(BO3)4,1.8117
mp-782685,Li3Fe3(OF)4,1.7117
mp-504189,Li3Fe3(PO4)4,2.0208
mp-762819,Li3Fe3(SnO5)2,1.9362
mp-849349,Li3Fe3(WO6)2,2.298
mp-773235,Li3Fe3NiO8,0.9040000000000004
mp-764593,Li3Fe3OF7,3.1024000000000003
mp-772131,Li3Fe3SbO8,0.7864
mp-761991,Li3Fe3SiO8,1.4764999999999997
mp-772334,Li3Fe3TeO8,1.2469
mp-1177706,Li3Fe3WO8,1.2451000000000003
mp-764459,Li3Fe4(BO3)4,1.8891
mp-777493,Li3Fe4(OF3)3,1.9361
mp-1177729,Li3Fe4(P2O7)4,0.018199999999999883
mp-779820,Li3Fe4(Si3O10)2,0.05409999999999998
mp-769796,Li3Fe4NiO8,1.1938999999999995
mp-850079,Li3Fe4O3F5,2.4718
mp-763732,Li3Fe4P3H12O19,0.07379999999999988
mp-775082,Li3Fe4SbO8,1.5130000000000001
mp-769833,Li3Fe4SnO8,1.0881000000000007
mp-774112,Li3Fe4WO8,1.1457000000000002
mp-773618,Li3Fe5(CoO6)2,0.5874000000000001
mp-762771,Li3Fe5(NiO6)2,0.2269999999999999
mp-1177652,Li3Fe5(PO4)6,2.4326
mp-586092,Li3Fe5O8,0.2833999999999999
mp-770655,Li3Fe5O9,1.6819000000000002
mp-1177648,Li3Fe5OF11,2.9614000000000003
mp-762465,Li3Fe7O12,1.0391000000000004
mp-850268,Li3Fe8(BO3)8,1.6325999999999998
mp-764637,Li3Fe8O3F13,2.254
mp-850170,Li3Fe9O5F11,1.9447
mp-771542,Li3FeAsCO7,2.5381
mp-761291,Li3FeB4O9,3.0827
mp-777245,Li3FeB8O15,3.1956999999999995
mp-771423,Li3FeBAsO7,2.1952
mp-778748,Li3FeBO4,3.0694000000000004
mp-771078,Li3FeBO5,0.4643000000000001
mp-771744,Li3FeBPO7,2.3324
mp-763079,Li3FeCo3O8,0.09799999999999986
mp-776840,Li3FeF5,3.4968
mp-776627,Li3FeF6,3.9832
mp-1223005,Li3FeNi2(PO4)3,3.0833
mp-764597,Li3FeO2F,2.4918
mp-770886,Li3FeO3,1.9602
mp-850183,Li3FeO4,0.3288
mp-775153,Li3FeOF3,3.0904000000000003
mp-773439,Li3FeOF4,2.3849
mp-780557,Li3FeP2HO8,4.1768
mp-540454,Li3FeP2O9,0.01839999999999997
mp-25536,Li3FePCO7,4.2226
mp-766755,Li3FePO5,2.9765
mp-997543,Li3FeSi2O7,2.8006999999999995
mp-773211,Li3FeSiCO7,2.5352
mp-764341,Li3FeSiO5,2.3144
mp-556014,Li3Ga(BO3)2,4.1585
mp-15558,Li3GaF6,6.2804
mp-17685,Li3GaGeO5,3.2656
mp-3887,Li3GaN2,2.3783
mp-16996,Li3GaSiO5,3.6429
mp-559706,Li3Gd(BO3)2,3.1614
mp-1212476,Li3Gd(NO3)6,2.5239000000000003
mp-1212457,Li3Gd3(TeO6)2,2.7896
mp-1177660,Li3GdO3,3.2731
mp-977164,Li3H3N2,1.9572
mp-697047,Li3H4Rh,0.3917999999999999
mp-722890,Li3H6Ir,3.0495
mp-733455,Li3H6Rh,2.4252
mp-1211542,Li3Ho3(TeO6)2,3.1762
mp-556799,Li3In(BO3)2,3.4308
mp-6425,Li3In2(PO4)3,3.7684
mp-1147621,Li3InBr6,2.67
mp-676109,Li3InCl6,3.373
mp-1110579,Li3InF6,4.8656
mp-1029562,Li3InN2,1.0920999999999998
mp-27417,Li3InO3,2.8858000000000006
mp-1111071,Li3IrF6,2.1887
mp-774918,Li3La14(CuO7)4,0.4793000000000003
mp-1211607,Li3La2(BO3)3,4.5135000000000005
mp-722330,Li3La2H6(N3O10)3,3.5098
mp-1185315,Li3La3(MoO6)2,2.6718
mp-761156,Li3La5Ti6Nb2O26,1.8854999999999995
mp-767978,Li3La7(FeO8)2,0.9455
mp-743640,Li3La8Ti9Cr3O36,1.2976
mp-1018766,Li3LaAs2,0.5023
mp-1018768,Li3LaBi2,0.1578999999999997
mp-771128,Li3LaNiO4,2.5876
mp-780226,Li3LaO3,3.8722
mp-8407,Li3LaP2,0.6124999999999998
mp-8405,Li3LaSb2,0.2039
mp-1212270,Li3Lu(NO3)6,3.0998
mp-1211646,Li3Lu3(TeO6)2,3.0978
mp-771996,Li3Mg2Fe19O32,1.1775000000000002
mp-1222536,Li3Mg5Bi3Pb,0.01360000000000028
mp-772324,Li3MgNi3O8,0.23800000000000002
mp-776903,Li3MgNiO4,1.3007000000000002
mp-768190,Li3MgPCO7,5.3898
mp-771733,Li3MgV8O16,0.28110000000000035
mp-1197046,Li3MgZn5(BH4)15,5.1726
mp-771291,Li3Mn(BO2)5,4.0042
mp-770910,Li3Mn(BO3)2,1.3619
mp-762176,Li3Mn(CO3)3,0.6702
mp-763604,Li3Mn(CO3)4,0.009300000000000086
mp-761633,Li3Mn(CoO3)2,0.0054999999999996154
mp-771097,Li3Mn(FeO2)4,0.12429999999999986
mp-773292,Li3Mn(FeO3)2,0.6681999999999997
mp-765987,Li3Mn(OF)2,2.4193
mp-765816,Li3Mn(PO4)2,1.5329
mp-762836,Li3Mn(Si2O5)3,1.3319
mp-764946,Li3Mn2(CO3)4,0.5701999999999999
mp-779153,Li3Mn2(CoO4)2,0.2149000000000001
mp-767363,Li3Mn2(FeO4)2,0.3168000000000002
mp-780898,Li3Mn2(PO3)7,4.0146
mp-31969,Li3Mn2(PO4)3,1.0846999999999998
mp-1211552,Li3Mn2(SeO3)4,0.6514
mp-767835,Li3Mn2C3O9F,4.0815
mp-775697,Li3Mn2CrO6,0.2176
mp-764189,Li3Mn2F7,3.4951000000000003
mp-767205,Li3Mn2F9,2.0418