task_id,pretty_formula,band_gap
mp-29266,CsS,1.7141000000000002
mp-541750,CsS2N(O2F)2,5.4829
mp-556600,CsS2N3O4,2.6646
mp-1188913,CsS3,1.6522
mp-6368,CsSO2F,4.4107
mp-561681,CsSO3,5.1103999999999985
mp-622195,CsSO3F,5.1506
mp-1103912,CsSO4,0.10129999999999996
mp-554822,CsSb(PO4)2,2.9469
mp-1195448,CsSb(SO4)2,4.0889999999999995
mp-556061,CsSb2F11,4.4228
mp-556583,CsSb2F7,4.2993
mp-1197959,CsSb2PO8,1.9696
mp-683925,CsSb3F16,3.8894
mp-1213089,CsSb4F13,4.8268
mp-1194090,CsSbC6Cl5,0.3922
mp-567583,CsSbCl6,1.9983
mp-23576,CsSbClF3,3.6585
mp-29296,CsSbF4,4.4582
mp-9636,CsSbF6,5.0904
mp-510273,CsSbO2,2.3815
mp-667360,CsSbOF4,3.5748999999999995
mp-1181770,CsSbPO4F3,1.815
mp-1213195,CsSbS(O2F)2,4.6354
mp-28701,CsSbS6,1.7828
mp-505281,CsSbS6(O3F)6,2.627
mp-680235,CsSbTe6(OF5)6,2.5476
mp-1225923,CsSbTeO6,0.6357999999999997
mp-1225944,CsSbWO6,2.6144000000000003
mp-1213159,CsSc(SO4)2,4.2
mp-1194629,CsSc(SeO3)2,4.1226
mp-1213157,CsSc(WO4)2,4.1734
mp-607477,CsSc3(CuTe3)2,0.5930999999999997
mp-1229290,CsSc3H6(Se3O10)2,4.2231
mp-1225939,CsScAgF6,0.3171999999999999
mp-542557,CsScAs2(HO4)2,3.6849
mp-699401,CsScAsO4F,2.2703999999999995
mp-754826,CsScO2,2.9595
mp-543046,CsScP2(HO4)2,4.8329
mp-1201920,CsSe4,0.9606
mp-1370,CsSi,1.6317999999999997
mp-1019719,CsSi2BO6,5.2589000000000015
mp-1199473,CsSi2H18C6N,2.8303
mp-1226125,CsSi2HO5,4.694299999999999
mp-1213518,CsSi2Mo3P6O25,1.3028
mp-581955,CsSi2SbO7,3.2271
mp-758180,CsSi3HO7,4.7963000000000005
mp-558426,CsSiBiS4,2.5851
mp-1147745,CsSiI3,0.7684000000000002
mp-1226548,CsSiSbO5,2.1812000000000005
mp-570957,CsSiTe3,1.258
mp-1213306,CsSm(MoO4)2,3.6683
mp-1213498,CsSm(NbBr3)6,0.9846
mp-1226438,CsSm(PO3)4,5.6011000000000015
mp-1213147,CsSm(WO4)2,3.4595
mp-1190516,CsSm2Ag3Te5,1.1140999999999996
mp-1213272,CsSm2Cl7,4.4735000000000005
mp-1191238,CsSm2Cu3Se5,1.1972
mp-16445,CsSm2CuSe4,0.8770000000000002
mp-1213362,CsSm2I5,0.008799999999999919
mp-1225973,CsSm2Ti2NbO10,1.4433999999999996
mp-12497,CsSmCdTe3,1.7393999999999998
mp-556979,CsSmGeS4,2.4631
mp-1192812,CsSmGeSe4,1.6613
mp-574651,CsSmMnSe3,0.504
mp-7977,CsSmO2,2.8983
mp-9082,CsSmS2,2.1397
mp-561635,CsSmSiS4,2.8414
mp-12343,CsSmZnTe3,1.6885
mp-571056,CsSn,1.1371000000000002
mp-23467,CsSn2Br5,2.4489
mp-30164,CsSn2Cl5,3.0631
mp-27214,CsSnBr3,1.6021999999999998
mp-27394,CsSnCl3,2.9177
mp-1105915,CsSnF3,3.8484
mp-27381,CsSnI3,2.2107
mp-1193634,CsSnPS4,2.1346000000000003
mp-561710,CsSnS3,1.646
mp-613162,CsSnSe3,1.1698
mp-1213276,CsSr2I5,3.6667
mp-22264,CsSr2Nb3O10,1.4423
mp-7181,CsSr2Ta3O10,2.0452000000000004
mp-1213104,CsSrBr3,4.5591
mp-1213084,CsSrCl3,5.3108
mp-8397,CsSrF3,6.4767
mp-1080232,CsSrI3,3.8228
mp-29228,CsSrN9,3.8209
mp-995215,CsSrSiHO4,3.9559
mp-1213360,CsSrTa6Cl18,0.15569999999999995
mp-9309,CsTa(BO3)2,3.4027
mp-505322,CsTa(CuTe2)2,1.2436999999999996
mp-559118,CsTa(PO4)2,3.39
mp-557186,CsTa2P5O18,3.0509
mp-1227943,CsTa4P3S19,1.1991
mp-1213077,CsTaCl6,2.8764000000000003
mp-705413,CsTaCo(OF2)2,2.9400000000000004
mp-865606,CsTaGeS5,0.9889
mp-606510,CsTaI6,1.1788
mp-34293,CsTaN2,2.1495
mp-1185552,CsTaO3,1.8505
mp-1225870,CsTaS3,0.5262
mp-685607,CsTaSe3,0.2591000000000001
mp-1194848,CsTaV2O8,2.6968
mp-1225854,CsTaWO6,3.0684
mp-1213293,CsTb(MoO4)2,3.6355
mp-1213369,CsTb(NbBr3)6,0.9602999999999996
mp-17128,CsTb(PO3)4,5.3063
mp-1213324,CsTb(WO4)2,3.4111
mp-542164,CsTb2Ag3Se5,1.0943999999999998
mp-1190323,CsTb2Ag3Te5,1.0619999999999998
mp-1213261,CsTb2Cl7,4.5407
mp-6182,CsTb2Cu3Se5,1.2012
mp-11121,CsTbCdSe3,2.0647
mp-12495,CsTbCdTe3,1.5451
mp-1213063,CsTbMnSe3,0.5093000000000001
mp-9085,CsTbS2,2.1420000000000003
mp-1194142,CsTbSiS4,2.9311000000000003
mp-573710,CsTbZnSe3,2.1028
mp-1198737,CsTc3(Se2Br)2,1.0972
mp-556752,CsTcNClO4,2.287
mp-27250,CsTcO4,3.4144
mp-8361,CsTe,1.1129000000000002
mp-1178386,CsTe4,0.6200999999999999
mp-1205022,CsTe7,0.11349999999999973
mp-573755,CsTeAu,1.2960999999999998
mp-541628,CsTeF5,4.6238
mp-9462,CsTeSe3,0.975
mp-1198898,CsTh2(PO4)3,4.5085
mp-1200592,CsThMo2ClO8,3.4943
mp-645687,CsTi(PS4)2,1.3716000000000002
mp-1225859,CsTi2(OF)3,2.8355
mp-505663,CsTi2Cl7,0.2471000000000001
mp-30951,CsTi2I7,0.19019999999999992
mp-1197745,CsTi2P3(O5F2)2,2.7395
mp-1225908,CsTi3AlO8,2.5673000000000004
mp-561121,CsTi3P5O19,2.8059
mp-1197107,CsTi8F33,4.5605
mp-1225829,CsTiAlO4,3.9269
mp-541956,CsTiAsO5,3.0051
mp-40502,CsTiCoOF5,2.3608
mp-570706,CsTiCu3Se4,1.2487999999999997
mp-1238514,CsTiH10C4O13,0.5295000000000001
mp-699488,CsTiH24(SO10)2,0.1522000000000001
mp-705451,CsTiMnOF5,2.0199000000000003
mp-684745,CsTiNb(O2F)2,2.4272
mp-41473,CsTiNiOF5,3.1081
mp-17359,CsTiP2O7,0.12650000000000006
mp-676448,CsTiZnOF5,3.1448
mp-1095880,CsTl2Bi,0.8870000000000002
mp-1225957,CsTlAgF6,0.12430000000000008
mp-1112177,CsTlBr3,0.4264
mp-573702,CsTlBr4,2.088
mp-1112176,CsTlCl3,1.0667
mp-1078203,CsTlF3,2.1736
mp-1213164,CsTlF4,2.8297
mp-28332,CsTlI4,1.238
mp-1205877,CsTlO,1.5131
mp-1213346,CsTm(MoO4)2,3.5794999999999995
mp-1213326,CsTm(NbBr3)6,0.9399
mp-1213213,CsTm(WO4)2,4.758
mp-1213262,CsTm2Cl7,4.636
mp-581749,CsTm2Cu3Se5,1.2472999999999996
mp-12496,CsTmCdTe3,1.5519999999999996
mp-1213648,CsTmMnSe3,0.5388000000000002
mp-753799,CsTmO2,2.7783999999999995
mp-1213300,CsTmP2O7,5.2016
mp-541024,CsTmP4(H2O3)6,5.4054
mp-1078990,CsTmS2,2.3326
mp-556414,CsTmSeCl2O3,4.3558
mp-1194326,CsTmSiS4,3.046
mp-505713,CsTmZnSe3,2.1716
mp-1197993,CsU(OF)3,0.4379
mp-1229063,CsU(PO4)2,0.4818000000000002
mp-1197277,CsU(SeO4)2,0.2028
mp-1200035,CsU2(PO4)4,0.008899999999999686
mp-1225971,CsU2F9,0.08700000000000019
mp-605374,CsU2H3(C2O7)2,2.0856
mp-7322,CsU2O6,0.005100000000000549
mp-556690,CsU6F25,0.01100000000000012
mp-13346,CsUAgS3,0.0004999999999997229
mp-510662,CsUAgSe3,0.0005999999999999339
mp-1190122,CsUCl4O3,0.12850000000000006
mp-697804,CsUCrO6,1.6103999999999998
mp-7489,CsUF6,0.8853000000000001
mp-559852,CsUGa(PO5)2,2.2695
mp-541035,CsUN3O11,2.4395
mp-541096,CsUNbO6,2.1254
mp-865424,CsUO3,0.4571000000000005
mp-1199474,CsUP2(HO4)2,0.10049999999999998
mp-572741,CsUP3O11,2.3440000000000003
mp-1194222,CsUPNO9,0.16769999999999996
mp-1225841,CsUSbO6,1.6989999999999998
mp-1197456,CsUTe6,0.051099999999999916
mp-699604,CsUV3O11,2.1691
mp-616653,CsUVO6,2.0327
mp-1197526,CsV(PO3)4,0.014000000000000234
mp-565797,CsV(SO4)2,2.0301
mp-540690,CsV2O5,2.0615
mp-541176,CsV2P5O16,0.005300000000000082
mp-1196047,CsV2SbO8,2.6627
mp-25155,CsV3(SeO6)2,2.3071
mp-541976,CsV3(TeO6)2,2.3111
mp-1200471,CsV3B2P4(H4O11)2,1.7972
mp-651814,CsV3O8,2.1187
mp-23038,CsVBr3,0.6528
mp-22977,CsVCl3,0.4834999999999998
mp-1228876,CsVCoF6,1.861
mp-1192215,CsVF4,1.9821
mp-1228886,CsVFeF6,2.0609
mp-863295,CsVGa(PO5)2,0.6576
mp-743986,CsVH12(C2O7)2,2.5660000000000003
mp-744223,CsVH24(SO10)2,2.6892
mp-22991,CsVI3,0.5972999999999997
mp-1029293,CsVN2,0.00010000000000021103
mp-1228899,CsVNiF6,2.2957
mp-540778,CsVO3,3.1093
mp-1191684,CsVOF3,2.6531
mp-1193015,CsVOF4,3.5538
mp-652774,CsVP2O7,1.8684000000000005
mp-1197494,CsVP3HO10,2.1397000000000004
mp-1198694,CsVPO5,2.8920000000000003
mp-1181965,CsVSO6,2.1361
mp-1201217,CsVSeO5,3.1152
mp-1225864,CsVTeO6,1.7748999999999997
mp-1225856,CsVWO6,1.7903
mp-1225904,CsVZn(PO3)6,2.2505
mp-1225824,CsVZnF6,2.2925
mp-582076,CsW3Br3Cl4,2.9902
mp-1226055,CsW3Br7,2.6984
mp-1213572,CsW3Cl7,2.9565
mp-1213488,CsW3I3Cl4,2.8865
mp-1197070,CsWF7,4.6206
mp-651768,CsXe3O3F13,2.8119
mp-29513,CsXeF7,3.2665999999999995
mp-1204501,CsY(BH4)4,5.727
mp-1213231,CsY(MoO4)2,4.0166
mp-1213375,CsY(NbBr3)6,0.9772
mp-1019725,CsY(PO3)4,5.5193
mp-1195090,CsY(SeO3)2,4.0909
mp-1213335,CsY(WO4)2,3.3854
mp-669309,CsY10(C2I9)2,0.2173999999999996
mp-1213252,CsY2Cl7,4.4195
mp-1199735,CsY2CuTe4,0.6813999999999996
mp-771163,CsY3O5,4.0757
mp-1213356,CsYC4O9,0.33799999999999997
mp-1037012,CsYMg30O32,3.2218
mp-1213646,CsYMnSe3,0.5653999999999999
mp-541044,CsYO2,2.8477
mp-541412,CsYP2O7,5.1175
mp-555160,CsYSeCl2O3,4.4032
mp-1103744,CsYZnTe3,1.4045999999999998
mp-568005,CsYbBr3,4.3376
mp-1070599,CsYbCl3,5.3324
mp-8398,CsYbF3,7.049099999999998
mp-1206323,CsYbH3,3.325
mp-1185576,CsYbI3,3.8129
mp-18423,CsYbP2O7,0.07079999999999997
mp-699213,CsZn2P2HO8,3.9656
mp-1200520,CsZn3(PO4)3,0.0050999999999999926
mp-1019723,CsZn4(BO3)3,2.8217
mp-1084778,CsZn4As3,9.999999999976694e-05
mp-1101093,CsZn4P3,0.11189999999999987
mp-630391,CsZnAgC4(SN)4,2.9114
mp-560244,CsZnB(PO4)2,5.0817
mp-1225874,CsZnCoF6,1.1561
mp-1225833,CsZnFeF6,2.667
mp-1228774,CsZnNiF6,1.2813
mp-557693,CsZnPO4,4.1531
mp-555862,CsZr(NO3)5,3.4458
mp-560091,CsZr2(PO4)3,4.3451
mp-1019720,CsZr2Al(PO4)4,4.3299
mp-571410,CsZr6BI14,0.7638000000000003
mp-1213455,CsZr6CCl15,1.1383
mp-582176,CsZr6CI14,0.007500000000000284
mp-1213469,CsZr6MnCl14,1.2292
mp-570192,CsZr6MnI14,0.8649
mp-1181558,CsZrCu3Se4,1.0516
mp-7152,CsZrCuSe3,0.6262999999999996
mp-1189092,CsZrOF5,1.368
mp-22271,Cu(AsO2)2,0.4283999999999999
mp-1069055,Cu(BrN)2,0.227
mp-1202343,Cu(BrO4)2,0.4173000000000001
mp-1213509,Cu(BrO6)2,0.03369999999999995
mp-1192806,Cu(CO2)4,0.019299999999999984
mp-1201134,Cu(CO3)2,0.8678
mp-1213134,Cu(HCl)2,0.6302
mp-556582,Cu(IO3)2,0.4893000000000001
mp-1203008,Cu(N2O3)2,0.706
mp-1102920,Cu(N3O2)2,0.02550000000000008
mp-1104198,Cu(NCl2)2,0.2555000000000001
mp-662543,Cu(NO3)2,0.5647
mp-540496,Cu(PO3)3,0.21110000000000007
mp-28888,Cu(PtS2)2,0.13930000000000042
mp-756132,Cu(SbO2)2,0.2979000000000003
mp-1226169,Cu10Hg2Sb4S13,0.2157
mp-1199685,Cu2(ReS2)3,0.6908999999999996
mp-1213635,Cu2(ReSe2)3,0.18399999999999966
mp-768451,Cu2(SO4)3,0.028799999999999937
mp-1196830,Cu24Ag9Pb26(Cl31O24)2,0.04290000000000016
mp-532348,Cu29(Ag6As7)2,0.025599999999999845
mp-1104602,Cu2Ag(SO5)2,0.07600000000000008
mp-1104157,Cu2Ag(SeO5)2,0.03580000000000005
mp-1225986,Cu2Ag5Se4NO15,0.4152000000000001
mp-1225935,Cu2AgBiPbS4,0.6803000000000008
mp-1213188,Cu2AgH(SO5)2,0.3968999999999998
mp-1213178,Cu2AgH(SeO5)2,0.3436000000000001
mp-1105189,Cu2AgPS4,1.1839000000000004
mp-560845,Cu2As4S3Cl2,1.4078000000000004
mp-1200181,Cu2As9P3S9I2,2.0849
mp-558794,Cu2BH5O6,0.040900000000000165
mp-652196,Cu2Bi4Pb2S9,0.7154000000000007
mp-680461,Cu2Bi8Pb2S15,0.6154000000000002
mp-1226431,Cu2Bi8Pb3Se3S13,0.3131000000000004
mp-669445,Cu2Bi8Pb6S19,0.5230000000000006
mp-1225798,Cu2BrCl,0.22299999999999984
mp-1199787,Cu2C3NCl5,0.12420000000000007
mp-1182566,Cu2C4NCl3,0.0954
mp-1182542,Cu2C4NCl5,1.1637
mp-604273,Cu2GeP2(H5O7)2,0.6064999999999999
mp-555729,Cu2H10C6S3N4,2.7198
mp-1202278,Cu2H12C4Br3N,1.7327
mp-1196454,Cu2H13C2S2NO11,0.3796
mp-774726,Cu2H26C6S7N12O5,2.5054
mp-734045,Cu2H2Se2O7,0.1964999999999999
mp-1201073,Cu2H3ClO3,0.16490000000000005
mp-1192779,Cu2H4CO5,0.12400000000000012
mp-697660,Cu2H6C3N4O,2.1485
mp-1202476,Cu2H6Pb5C(SO7)3,0.1833
mp-10952,Cu2HgGeS4,0.0041999999999999815
mp-23353,Cu2HgI4,0.5589000000000004
mp-1225799,Cu2IBr,0.06790000000000074
mp-1213046,Cu2NO6,0.01469999999999999
mp-771115,Cu2NiO4,0.09189999999999987
mp-1225853,Cu2NiSn3S8,0.12199999999999987
mp-1225946,Cu2NiSnO4,0.5100000000000007
mp-1225905,Cu2NiTeO6,0.16019999999999968
mp-582882,Cu2P2PbO8,0.35749999999999993
mp-28034,Cu2P7,0.6893000000000002
mp-683899,Cu2P8Se3Br2,1.2898999999999998
mp-570817,Cu2P8Se3I2,1.3297999999999996
mp-1198442,Cu2PC2SO13,0.1371
mp-579463,Cu2Pb(SeO3)3,0.2694000000000001
mp-29396,Cu2PbO2,0.6290000000000004
mp-581212,Cu2S,0.3475000000000001
mp-28491,Cu2SO4,1.5322
mp-622628,Cu2SbO5,0.011999999999999568
mp-1120816,Cu2SeS3,0.5793999999999997
mp-1200668,Cu2Si2Pb7(S2O13)2,0.3784000000000001
mp-1213451,Cu2Si3H24C8(N10F9)2,3.4717
mp-1106310,Cu2SiHgS4,0.3963000000000001
mp-555818,Cu2SiPbS4,1.3388
mp-15895,Cu2SiS3,1.1124999999999998
mp-15896,Cu2SiSe3,0.24020000000000066
mp-1025467,Cu2SnHgS4,0.012599999999999945
mp-10519,Cu2SnS3,0.02120000000000033
mp-581276,Cu2Te2Cl2O5,0.2530000000000001
mp-1192807,Cu2Te2Pb(ClO3)2,0.4530000000000003
mp-772354,Cu2W2O7,1.0151000000000003
mp-505402,Cu2WO4,1.3749000000000002
mp-8976,Cu2WS4,1.4454
mp-1226691,Cu3(BO3)2,0.11870000000000006
mp-1193512,Cu3(I3O10)2,0.025900000000000038
mp-1043118,Cu3(MoO3)4,0.3216999999999999
mp-1192830,Cu3(MoO5)2,0.1029
mp-755032,Cu3(TeO5)2,0.11499999999999976
mp-1196623,Cu3Ag2Bi7Pb3S16,0.3872
mp-1195349,Cu3Ag2P2O9,0.17900000000000027
mp-1225783,Cu3Ag3(PS4)2,1.1010000000000004
mp-1204064,Cu3Ag5(PO4)4,0.000199999999999978
mp-605172,Cu3As2H16C16Br3(NO)2,1.6932
mp-542553,Cu3As4H18C8Br3(NO2)2,2.8057000000000003
mp-542554,Cu3As4H18C8I3(NO2)2,2.778
mp-1102432,Cu3AsO7,0.1009
mp-1203923,Cu3B6H2O13,0.21270000000000036
mp-1213325,Cu3B7ClO13,0.01980000000000004
mp-1191259,Cu3Bi2(PO7)2,0.021299999999999875
mp-680135,Cu3Bi7(PbS5)3,0.6997
mp-607291,Cu3BiS3,0.7058
mp-669425,Cu3BiSe2IO8,0.13710000000000022
mp-572778,Cu3BiTe2ClO8,0.054199999999999804
mp-1183968,Cu3Cl,0.4451999999999998
mp-1202152,Cu3Ge(PO5)2,0.010499999999999956
mp-23733,Cu3H2(CO4)2,0.1766000000000001
mp-643793,Cu3H2(OF2)2,0.3217000000000001
mp-1213584,Cu3H8S4(NO8)2,0.2670000000000001
mp-1194777,Cu3Hg2(Te3O8)2,0.08519999999999994
mp-743820,Cu3Mo2(HO5)2,0.2264999999999999
mp-1193763,Cu3Mo2O9,0.34640000000000004
mp-1204081,Cu3MoH24C8S3I3N2O,1.9696
mp-1933,Cu3N,0.1899999999999995
mp-7463,Cu3P,0.11369999999999968
mp-1225791,Cu3P(SeS)2,0.4135
mp-679930,Cu3P15I2,1.011
mp-1204188,Cu3P2NO6,0.7708999999999999
mp-1202203,Cu3P4(SBr)3,1.5309
mp-559307,Cu3P4(SI)3,1.5135999999999998
mp-1197453,Cu3P4C4(NO6)2,0.5249999999999999
mp-1202993,Cu3P4Pb3O16,0.4977999999999998
mp-565597,Cu3P4S4I3,1.6302
mp-680446,Cu3P4Se4Br3,1.2863000000000002
mp-559558,Cu3P8(S2Cl)3,1.7878000000000005
mp-1200788,Cu3P8(Se2Br)3,1.4053
mp-1204573,Cu3P8(Se2I)3,1.3712000000000004
mp-3934,Cu3PS4,1.0202
mp-5756,Cu3PSe4,0.0026000000000001573
mp-1202064,Cu3Pb2Se2(NO7)2,0.6045999999999998
mp-1202614,Cu3SO8,0.0411999999999999
mp-780043,Cu3Sb(PO4)4,0.0021999999999997573
mp-17691,Cu3SbS3,0.9982999999999996
mp-29476,Cu3SbSe3,0.4860999999999995
mp-20683,Cu3Se2,0.10210000000000008
mp-645435,Cu3Sn4PbO12,0.6745999999999999
mp-1199337,Cu3TeO8,0.06259999999999999
mp-1198524,Cu3TePbO7,0.0045000000000001705
mp-557510,Cu3TeS3Cl,0.7738999999999994
mp-565259,Cu3WO6,0.09830000000000004
mp-559551,Cu4Bi4S9,0.6524999999999999
mp-1225710,Cu4Br3Cl,0.19669999999999987
mp-1193718,Cu4Br6N4O,0.1205
mp-1225692,Cu4BrCl3,0.2709000000000001
mp-565590,Cu4GeS4,0.13370000000000015
mp-1198506,Cu4H18C6S3I4,2.6185
mp-691038,Cu4H24C13N7Cl,2.237
mp-601817,Cu4H3C2N5,1.9312
mp-698171,Cu4H7SO11,0.2785
mp-1225709,Cu4I3Br,0.028500000000000195
mp-1225726,Cu4IBr3,0.12539999999999996
mp-650741,Cu4Mo5O17,0.7570999999999999
mp-21730,Cu4P2O9,0.05810000000000004
mp-1204253,Cu4Se3O10,0.20719999999999986
mp-28995,Cu4SiP8,1.2078000000000009
mp-34126,Cu4SnP10,0.1934000000000005
mp-504536,Cu4SnS4,0.0014000000000002901
mp-558364,Cu4Te5(ClO3)4,0.2763
mp-1197383,Cu5(PO6)2,0.03669999999999973
mp-1213314,Cu5As2(HO3)4,0.07630000000000026
mp-559620,Cu5Bi2(B2O7)2,0.038699999999999964
mp-1201155,Cu5Se4(ClO6)2,0.1832999999999998
mp-1225822,Cu5SeCl5O4,0.00120000000000009
mp-641710,Cu5Si(SbO6)2,0.1849999999999996
mp-1226321,Cu5Sn(BO5)2,0.024199999999999555
mp-28717,Cu6As4S9,0.35580000000000034
mp-557225,Cu6GeWS8,0.8154000000000003
mp-6287,Cu6Hg3(AsS3)4,0.2770999999999999
mp-623575,Cu6Mo5O18,0.8066000000000004
mp-1205281,Cu6MoC20S4N5Cl9,0.08750000000000002
mp-554627,Cu6PS5Br,0.8183999999999996
mp-1226194,Cu6SnWS8,0.00480000000000036
mp-1226362,Cu6Te2Mo2H2Cl4O15,0.2853999999999999
mp-554606,Cu7As6(PbO12)2,0.21329999999999985
mp-554511,Cu7P12S9Cl7,1.5304000000000002
mp-1196216,Cu7PS6,0.8748000000000005
mp-29823,Cu7PSe6,0.059600000000000534
mp-1195946,Cu7Se2(Cl3O4)2,0.02179999999999982
mp-1213668,Cu7Si6,0.006399999999999739
mp-5546,Cu8GeS6,0.5983
mp-570393,Cu8GeSe6,0.3182999999999998
mp-13872,Cu8SiS6,1.2330000000000003
mp-10428,Cu8SiSe6,0.4090000000000007
mp-1195958,CuAg(AsO4)2,0.037999999999999916
mp-1202008,CuAg2(NO3)4,0.6303
mp-1213222,CuAg2(PO3)4,0.2824
mp-1213198,CuAg2P2O7,0.3123
mp-644883,CuAg3S2,0.4302999999999999
mp-1229314,CuAg64Hg3(As4S15)4,1.2275999999999998
mp-653450,CuAg7As4ClO14,0.20730000000000004
mp-1213465,CuAgAs2H3O8,0.3652
mp-1213114,CuAgGeSe3,0.09719999999999997
mp-8911,CuAgS,0.2572000000000001
mp-1197719,CuAs12P4S12Br,2.3129
mp-1197298,CuAs12P4S12Cl,2.3055
mp-677164,CuAs2Pb6Cl7O6,2.2101
mp-653930,CuAs2Pb8Cl5O9,1.5363999999999995
mp-21560,CuAs2PbO7,0.4521000000000002
mp-556926,CuAs2S4(O2F3)4,0.7370999999999999
mp-559978,CuAs2S8N8(OF7)4,0.8385
mp-541087,CuAs4(H5O8)2,0.8247
mp-558199,CuAs4S3Cl,1.6216999999999997
mp-1198103,CuAs7PS7Br,1.8122
mp-1203697,CuAs7PS7Cl,1.8281
mp-31237,CuAsF7,0.002299999999999969
mp-1202551,CuAsH3O5,0.005700000000000038
mp-557871,CuAsPbO4,1.789
mp-1200529,CuAsPbO5,0.3355999999999999
mp-628643,CuAsPbS3,0.7903000000000002
mp-1078511,CuAsPtS2,0.04440000000000044
mp-29643,CuAsSe2,0.3247
mp-13589,CuB(CN)4,3.2193
mp-568532,CuB2(CN)8,0.8959999999999999
mp-554812,CuB2(PbO3)2,0.4309000000000003
mp-555093,CuB4O7,0.1877000000000004
mp-1096940,CuBO2,1.4702000000000002
mp-983565,CuBSe2,1.4842000000000004
mp-683998,CuBi(PSe3)2,0.6152000000000002
mp-615173,CuBi(WO4)2,1.2744999999999995
mp-556303,CuBi2(SeO3)4,0.5594000000000001
mp-1202656,CuBi2Se3O11,0.1166999999999998
mp-542302,CuBi3PbS6,0.6220999999999997
mp-642316,CuBi5PbS9,0.5931999999999995
mp-1225738,CuBi5S8,0.5007999999999999
mp-997054,CuBiO2,0.8431999999999995
mp-1041088,CuBiO4,0.016300000000000203
mp-624191,CuBiPbS3,0.6137000000000006
mp-865018,CuBiPtS3,0.4748999999999999
mp-22982,CuBiS2,0.4640000000000004
mp-554238,CuBiSCl2,0.6101000000000001
mp-23116,CuBiSeO,0.2728999999999999
mp-1080538,CuBr4(NO)2,0.20920000000000005
mp-1105650,CuC2(NCl2)2,0.19179999999999972
mp-555656,CuC2S2(OF)6,0.2384
mp-556238,CuC3(OF)3,2.7889999999999997
mp-1198330,CuC32(NF2)8,0.6932
mp-1182274,CuC4(NO2)4,0.09089999999999998
mp-1199635,CuC8(NCl2)2,0.13829999999999998
mp-1204111,CuC9S2NF10,0.7369000000000001
mp-562090,CuCClO,2.3667
mp-35308,CuCN,2.5202
mp-559044,CuCSN,2.0695
mp-30999,CuCl2,0.0333
mp-29279,CuClF10,0.02470000000000017
mp-1181633,CuClO,0.1879
mp-21727,CuGe5Pb3O14,0.6941999999999999
mp-1096949,CuGeI3,0.6909000000000001
mp-1202570,CuGeO3,0.52
mp-24093,CuH,0.5728
mp-1213590,CuH10(ClO6)3,0.04590000000000005
mp-601396,CuH10C2(N2O5)2,0.537
mp-1203110,CuH10C2(NCl2)2,0.3378
mp-561081,CuH10C2(NO)8,0.8346000000000001
mp-1196039,CuH10SO9,0.7868
mp-1191835,CuH10Se2(NO5)2,0.33830000000000005
mp-863429,CuH10SeO9,0.7758
mp-698401,CuH11C5NO6,0.7047
mp-1195736,CuH11C6NO5,0.3947
mp-600207,CuH12(C2N5)2,0.12029999999999995
mp-634716,CuH12(IN)4,0.7494999999999999
mp-556842,CuH12(N5O4)2,0.7679
mp-1200215,CuH12(NO6)2,0.3003
mp-24103,CuH12Br4(NO)2,0.4456
mp-1197738,CuH12C3S3BrN6,2.7521
mp-1199530,CuH12C3S3IN6,2.7447
mp-1199396,CuH12C3S3N6Cl,2.7683
mp-774723,CuH12C3SN6O7,0.5787
mp-698375,CuH12C5S4N,1.6568999999999998
mp-1198480,CuH12C6(S2N)2,0.3439
mp-604996,CuH12N2(Cl2O)2,0.6548
mp-697008,CuH12N2(OF2)2,0.7082
mp-707052,CuH12Se(NO)4,0.6238999999999999
mp-561308,CuH14C3NCl3O2,0.6228
mp-707285,CuH16(IO8)2,0.5665
mp-759393,CuH16C4(N5O)2,0.7959999999999999
mp-1226397,CuH16PtC4N4O11,0.21020000000000005
mp-721789,CuH18C4N10(ClO)2,0.8257000000000001
mp-1201042,CuH2(CO2)2,0.7319
mp-696200,CuH20C2S3(NO)8,0.665
mp-1199822,CuH20C6(NCl2)2,0.6553000000000001
mp-1199050,CuH20N6OF2,0.6747
mp-722275,CuH20S2(NO7)2,0.4314
mp-703398,CuH20Se2(NO7)2,0.2929
mp-707973,CuH22C8N10O,0.8007
mp-707484,CuH2N2O7,0.20340000000000005
mp-1191652,CuH2PbSO6,0.4256000000000002
mp-24522,CuH2SO5,0.375
mp-23955,CuH2SeO5,0.5822
mp-707464,CuH3(NO2)3,0.4393
mp-1201127,CuH32W6(Cl6O11)2,0.9259
mp-698361,CuH36C8(N5O4)2,0.8099999999999999
mp-1197502,CuH36S8I2(N3O4)3,2.6925
mp-1199734,CuH36S8N11O18,1.6645
mp-1201449,CuH38C12(S4O7)2,0.6426999999999999
mp-556951,CuH3C2NO4,0.2782
mp-1194779,CuH3C3O4,0.4645
mp-866635,CuH3NCl,2.1168000000000005
mp-23875,CuH4(ClO)2,0.4636
mp-756758,CuH4(IO4)2,0.5463
mp-632759,CuH4(OF)2,0.2541
mp-1199348,CuH44C12N8(ClO5)2,0.00109999999999999
mp-698396,CuH4C2NCl3O,0.11909999999999997
mp-721604,CuH4C2S2N2Cl,0.9968
mp-707169,CuH4C3ClO2,2.5729
mp-643378,CuH4Pb2(ClO2)2,0.1647000000000003
mp-1203607,CuH5C3NO4,0.040500000000000036
mp-570040,CuH5C5NCl,1.7729
mp-709886,CuH5Pb4SO11,0.4371
mp-862687,CuH6(NCl)2,0.050999999999999934
mp-643052,CuH6(NO)4,0.18490000000000006
mp-733650,CuH6(SeO4)2,0.2459
mp-866097,CuH6BrN2,2.1412