task_id,pretty_formula,band_gap
mp-704210,Mo(PO4)2,1.7412
mp-1205799,Mo(SI)2,0.06359999999999966
mp-1041534,Mo(WO4)2,1.0847000000000002
mp-1025689,Mo(WS3)2,1.2904999999999998
mp-1025787,Mo(WSe3)2,1.0526000000000002
mp-1212469,Mo12PH13O40,0.032200000000000006
mp-600535,Mo12PH24C6N3O40,2.3325
mp-1204131,Mo12PO40,0.2359
mp-1199271,Mo12PO46,0.10080000000000043
mp-1200386,Mo15Pb2Se19,0.014300000000000425
mp-540082,Mo2(PO4)3,1.2649
mp-744843,Mo2AsH18C6NO12,2.7111
mp-704608,Mo2C3S2(Cl5O)2,2.0977
mp-1180910,Mo2C4NO7,0.2724
mp-1197895,Mo2C5N3O14,0.9115
mp-1182454,Mo2C8Br8N2O3,0.5895000000000001
mp-690522,Mo2Cl4O,1.0866
mp-653062,Mo2Cl8O,0.9227
mp-657308,Mo2H12C4N2O15,0.754
mp-600515,Mo2H26C8N2O5F6,3.8239
mp-626813,Mo2H2O7,2.2613000000000003
mp-743952,Mo2H3(CO2)4,1.3146
mp-744853,Mo2H5C5N3O14,0.0017999999999998015
mp-1181051,Mo2H9C2NO7,2.0979
mp-1180397,Mo2N2O7,0.1772
mp-1080195,Mo2N3,0.006699999999999928
mp-1236949,Mo2N5Cl9O,0.2563
mp-542135,Mo2NCl7,0.004599999999999938
mp-1180983,Mo2NO7,1.4267
mvc-912,Mo2O3,0.4950000000000001
mvc-4607,Mo2O5,1.8672
mp-1180296,Mo2O7,0.018000000000000016
mp-1197674,Mo2P2NO11,0.976
mp-540142,Mo2P2O11,1.9934
mp-1040930,Mo2P2O9,1.6082
mp-566222,Mo2P2PbO12,2.7123
mp-32108,Mo2P3O11,1.099
mp-585184,Mo2P3O13,0.8305
mp-1221571,Mo2P3O14,1.168
mp-1205052,Mo2P4C14SNCl4,0.2631
mp-1221698,Mo2P4O15,2.6476
mp-1204412,Mo2PbSe2O11,2.5032
mp-1221499,Mo2RuSe4,0.34719999999999995
mp-28037,Mo2SBr2,0.9874999999999998
mp-1026980,Mo2Se3S,0.7385999999999999
mp-1221485,Mo2SeS3,1.3297999999999996
mp-1025748,Mo2W(Se2S)2,0.9139000000000004
mp-1026023,Mo2W(SeS2)2,0.6362999999999999
mp-1025922,Mo2WS6,1.2626
mp-1025905,Mo2WSe6,0.9875000000000004
mp-1041702,Mo3(AsO4)4,1.9565
mp-1180361,Mo3(NO5)2,0.4432
mp-32120,Mo3(PO4)4,1.6307999999999998
mp-1025819,Mo3(Se2S)2,0.7406999999999999
mp-1025988,Mo3(SeS2)2,0.5613000000000001
mp-1221944,Mo3As2O15,1.1186
mp-1180391,Mo3Br6O,0.7242
mp-1181015,Mo3C7Br3NCl3O7,0.3573
mp-1180460,Mo3C8Se13N2,0.4621000000000001
mp-1202450,Mo3Cl7O4,0.3905
mp-1202049,Mo3H12C4NO10,1.1448999999999998
mp-677542,Mo3H24C8S13N2,1.2768
mp-744073,Mo3H8C4SN2Cl6O7,1.122
mp-744213,Mo3H9Br3(ClO)4,0.2337999999999999
mp-744197,Mo3H9I3(ClO)4,0.11399999999999988
mp-680300,Mo3N2Cl11,0.1598
mp-1238416,Mo3N2O11,0.5323
mp-1180281,Mo3O10,0.3419
mp-1173004,Mo3O8,1.2002
mp-1047920,Mo3P3O13,0.2740999999999998
mp-704436,Mo3P5Pb3O23,2.5385000000000004
mp-1222254,Mo3S13N2O,0.1614
mp-29231,Mo3S3Br,0.08279999999999976
mp-640341,Mo3S7Cl4,1.6678
mp-1200502,Mo3Se(NO6)2,2.0106
mp-1045211,Mo3Se2ClO8,1.3271
mp-1027729,Mo3W(Se3S)2,0.9023000000000004
mp-1027051,Mo3W(SeS)4,0.6638999999999999
mp-1027795,Mo3W(SeS3)2,0.5583
mp-1027569,Mo3WS8,1.2054
mp-1028420,Mo3WSe8,0.9229999999999999
mp-1212007,Mo4H2N2O13,0.3893
mp-744579,Mo4H8N2O13,3.1654
mp-1203927,Mo4N2O15,0.13729999999999998
mp-705562,Mo4P5O24,1.4836
mp-504259,Mo4P9O32,0.20309999999999995
mp-1180972,Mo5N4O17,0.007300000000000002
mp-650908,Mo5PbO8,1.1307
mp-1181808,Mo6H10N2Cl14O,1.5795
mp-744413,Mo6H20Cl14O9,0.4679
mp-1199757,Mo6H24C8N2O19,2.8548
mp-1211112,Mo6H2N2Cl14O,0.9853
mp-1200940,Mo6N2Cl14O,0.8814
mp-1221507,Mo6NO18,1.8172
mp-649327,Mo6PbBr14,2.3552
mp-583553,Mo6PbCl14,2.6067
mp-569225,Mo6PbI14,1.8429999999999995
mp-1182606,Mo8N6O31,0.7161000000000001
mp-579184,Mo8O23,1.0384999999999998
mp-1181063,Mo8P6O49,0.17810000000000015
mp-604773,Mo8P9H56N12ClO56,2.7585
mp-706490,Mo9O26,0.6425000000000001
mp-505127,MoAs2O7,2.5873
mvc-5626,MoAsO5,1.7921999999999998
mp-29555,MoBr2,2.138
mp-23312,MoBr3,0.6926
mp-1198730,MoBr5N2O,0.4841000000000001
mp-566582,MoC3S2Cl7O,1.9623
mp-1210779,MoC4(O2F3)2,1.4545
mp-1201209,MoC4IO4,0.30389999999999995
mp-1197329,MoC8N4Cl7,0.11790000000000005
mp-620029,MoCl2,2.4548
mp-1204581,MoCl2O3,0.4375
mp-22853,MoCl3,0.15079999999999982
mp-25062,MoCl3O,2.4587
mp-505000,MoCl4O,1.7247
mp-1196724,MoCl5O,0.4724
mp-1221487,MoCl6,1.083
mp-557539,MoF3,3.5743
mp-1116906,MoF4,2.7902
mp-555649,MoF5,2.0375
mp-557259,MoF6,4.1644000000000005
mp-1198270,MoH12C2(N3O2)2,4.4428
mp-1205118,MoH12C2(S2N)2,1.8162
mp-1201772,MoH12C4S2(BrO2)2,2.5540000000000003
mp-744776,MoH12N3O3F5,2.5608
mp-743954,MoH12N3O5F3,2.802
mp-742819,MoH12Pd(NO)4,2.8621
mp-1200993,MoH14C6N2(O2F)2,3.2361
mp-705911,MoH17C5(NO)4,0.6504000000000001
mp-868119,MoH18C5(NO)4,4.6578
mp-601369,MoH2(CO2)2,1.1698
mp-743614,MoH2Cl2O3,2.6258
mp-735476,MoH2N2Cl5O,1.3419
mp-744439,MoH4O5,1.7108
mp-744702,MoH6NO3F2,2.7803
mp-1194494,MoH8(NO2)2,4.3792
mp-1199487,MoH8(S2N)2,1.5407
mp-743587,MoH8N2O5F2,2.7042
mp-25087,MoH8S2(NO)2,2.1419
mp-1221516,MoHO3,0.7548999999999999
mp-1198690,MoI2,1.6573999999999995
mp-1204886,MoN2Cl5O,0.7384
mp-1199664,MoN2O3F2,0.4198
mp-23396,MoNCl3,1.6727
mp-1180203,MoO4,0.4929000000000001
mp-1180190,MoO5,0.4684
mp-504575,MoOF4,4.1739
mp-1080023,MoOs(PbO3)2,0.4904000000000002
mp-566590,MoP(Cl3O)2,2.6452
mp-1197741,MoP2H18(C3Cl)2,1.3003
mp-504290,MoP2O7,1.9726
mp-566397,MoP2PbO8,0.995
mp-567152,MoP3Pb2O11,3.5617
mp-1180604,MoP4C13O2,0.43489999999999984
mp-643086,MoP4C5S3O5,2.1921
mp-1196957,MoP4H36(C6Cl)2,1.2124
mp-1199686,MoP4H38C13(NCl)4,2.5254000000000003
mp-697734,MoP4O13,1.1881
mp-567661,MoPCl5O3,2.3144
mp-652001,MoPCl8O,1.484
mp-745159,MoPH3O7,3.1857
mp-617599,MoPN(Cl3O)2,0.2661
mp-649091,MoPNCl6O,2.1536
mp-1180366,MoPNO7,2.2538
mp-1048896,MoPO4,1.1832000000000005
mp-1104182,MoPO5,1.3157
mp-1189600,MoPO7,1.1739
mp-25071,MoPb2O5,2.9254
mp-566692,MoPb3Cl2O5,2.1981999999999995
mp-652366,MoPb5O8,2.4222
mp-1211099,MoPbO2,0.0400999999999998
mp-25054,MoPbO4,2.897
mp-1196979,MoPbSeO6,2.3256
mp-1202582,MoRhN5ClO4,0.2387
mp-1434,MoS2,1.4223999999999997
mp-27866,MoS2Cl3,1.4364
mp-558183,MoS2N2Cl5,0.5399
mp-1239169,MoS3,0.7909000000000002
mp-559303,MoS3(NCl4)2,0.5145
mp-1211453,MoS6,0.15280000000000005
mp-1222494,MoS6N,0.01560000000000006
mp-554769,MoSBr,0.7938000000000001
mp-1210546,MoSCl,0.7895999999999992
mp-699535,MoSCl7O,1.8305
mp-1205247,MoSF4,2.8691
mp-1210554,MoSI,0.9913999999999996
mp-579128,MoSO6,3.0745000000000005
mp-683684,MoSe2Cl4O,1.0025
mp-573045,MoSeCl7O,2.4334
mp-1221404,MoSeS,1.2811000000000003
mp-560907,MoSeS2Cl5,2.0114
mp-1023955,MoW(SeS)2,0.9854
mp-1025740,MoW2(Se2S)2,0.8536999999999999
mp-1025824,MoW2(SeS2)2,0.7531999999999996
mp-1028642,MoW3(Se3S)2,0.8890000000000002
mp-1028947,MoW3(SeS)4,0.899
mp-1030520,MoW3(SeS3)2,0.6825000000000001
mp-1029246,MoW3S8,1.2245
mp-1028823,MoW3Se8,1.0016999999999996
mp-1116820,MoWO6,1.5686
mp-1023954,MoWS4,1.3317
mp-1028541,MoWSe3S,0.9028999999999998
mp-1221402,MoWSe4,1.3687000000000005
mp-1026975,MoWSeS3,0.5367999999999999
mp-1210764,N2F,0.8492999999999999
mp-1221446,N2O,6.212999999999999
mp-616407,N2O3,0.9366
mp-504769,N2O5,0.6626
mp-1095181,N3Cl,2.3584
mp-1188944,N4Cl,0.049499999999999884
mp-1180808,N4O9,0.5629
mp-1193689,NCl2O11,0.6672
mp-540572,NCl3,2.1636
mp-505727,NClO,1.9624
mp-1091418,NClO2,0.9419
mp-754712,NClO3,2.943
mp-1192449,NClO4,1.3055
mp-27774,NClO6,1.4162
mp-556500,NClOF4,1.6345
mp-1180208,NF2,1.9345
mp-2789,NO2,2.8134
mp-1204579,NO3,0.8948
mp-1180345,NO4,0.333
mp-1180438,NO6,0.02320000000000011
mp-29966,NOF,3.1441
mp-1197347,Na(AsO2)2,0.183
mp-1180233,Na(AsO3)2,0.8386
mp-776332,Na(BH)5,4.7322
mp-978278,Na(BH)6,5.6439
mp-557976,Na(CO)2,2.5015
mp-561309,Na(CO)3,1.0804
mp-510559,Na(CoO2)2,0.581
mp-1221438,Na(CoO2)3,0.1956
mp-766058,Na(Fe2O3)4,0.2905000000000002
mp-1104707,Na(GeP)3,1.0999999999999996
mp-28612,Na(LiSi2)3,0.12260000000000025
mp-1213541,Na(MoO2)3,0.07140000000000057
mp-1210547,Na(SO3)2,0.03560000000000008
mp-1180273,Na(SeO3)2,0.1802999999999999
mp-1204479,Na(SeO3)4,0.4418
mp-1212197,Na(SiO2)6,0.19879999999999987
mp-9378,Na(SnAs)2,0.15559999999999974
mp-1212318,Na(YbSe2)3,0.032900000000000595
mp-767914,Na10(WO3)13,0.3234999999999997
mp-1221784,Na10B18H6O35,4.6735
mp-555606,Na10Be4Si4O17,3.9403
mp-30252,Na10CaSn12,0.6648999999999998
mp-616702,Na10Co4O9,1.3618
mp-638558,Na10EuSn12,0.5328999999999997
mp-37749,Na10Fe4O9,0.5540999999999996
mp-778825,Na10Mn2O9,0.2126999999999999
mp-38089,Na10Mn4O9,0.4931999999999999
mp-1221463,Na10NbGaAs6,0.9622
mp-30253,Na10SrSn12,0.6713
mp-581956,Na10U8W5O44,1.7426
mp-18062,Na10YbSn12,0.6806000000000001
mp-36165,Na10Zn4O9,1.4874
mp-720670,Na10Zn7Sn7H24(S13O6)2,1.9307
mp-677336,Na10Zr6Si7(PO18)2,3.9808
mp-1211117,Na11(CoO2)13,0.009500000000000064
mp-761612,Na11(WO3)13,0.8887999999999994
mp-1196557,Na11B21(BrO18)2,4.5335
mp-1222188,Na11B21(ClO18)2,4.6644
mp-686371,Na11La7Th2Ti20O60,1.8209
mp-765653,Na11Mn24O48,0.043099999999999916
mp-532249,Na11Ti10O21,0.006800000000000139
mp-1221506,Na11TiNb2Si4(PO13)2,0.6018999999999999
mp-1221508,Na11TiNb2Si4P2O25F,2.5920000000000005
mp-677528,Na11Zr8Si7P5O48,4.0902
mp-1180708,Na12B26O45,4.6601
mp-1221962,Na12Ca3Fe2(SiO3)12,2.5728
mp-1225321,Na12DyY3H48(CO5)12,4.4939
mp-1194939,Na12Mn3S6(O3F)8,0.4383999999999999
mp-1199501,Na12MnCu2H16(SO4)8,3.8729
mp-645945,Na12SnGe8,0.32910000000000017
mp-721012,Na13Ca7S12(ClO16)3,5.0397
mp-532575,Na13Ca7S12(O16F)3,5.2446
mp-720360,Na13Ca7S12Cl(O24F)2,5.1477
mp-695559,Na13Ca7S12Cl2O48F,4.7708
mp-1221917,Na13Mn5(SiO3)12,0.3703000000000003
mp-695390,Na13Zr7Si5P7O48,3.7251
mp-695515,Na13Zr8Si9(PO16)3,4.4186999999999985
mp-31008,Na14Al4O13,2.4677
mp-27559,Na14Cd2O9,1.3841
mp-853264,Na14Co2O9,0.8922999999999999
mp-1176424,Na14Fe2O9,0.4975000000000001
mp-1222228,Na14Mg9(P2O7)8,4.716
mp-540734,Na14Mn2O9,0.8901999999999999
mp-764496,Na14Ni2O9,1.3427
mp-1029705,Na15Cr7N19,0.5928
mp-1029862,Na15Mo7N19,1.3481
mp-554285,Na15S5Cl(O5F)4,4.9573
mp-1030704,Na15W7N19,1.6114000000000002
mp-1222063,Na15Y2C9SClO30F,1.0897
mp-1221546,Na16Al12Si12I3ClO48,4.2334
mp-1222203,Na16Ti7(SiO5)8,0.05170000000000008
mp-1221537,Na16W3(NO3)4,0.08539999999999992
mp-1213542,Na16Zn11Sn16,0.034900000000000375
mp-706847,Na17(WO3)19,0.9585000000000004
mp-559916,Na17Al5O16,2.4421
mp-697308,Na17Zr12Si11P7O72,4.1993
mp-693746,Na17Zr7Sc5Si6(PO6)12,4.1506
mp-28413,Na2(GaSb)3,0.19130000000000005
mp-764347,Na2(NiO2)5,0.07240000000000002
mp-764422,Na2(NiO2)7,0.5751
mp-541895,Na2(ReS2)3,1.4417
mp-1196650,Na2(ReSe2)3,1.2493
mp-1211291,Na20Zn7Sn12,0.018599999999999728
mp-677692,Na20Zr11Si10(PO9)8,2.9772000000000003
mp-676765,Na21In5O15,0.04180000000000006
mp-680169,Na21S7Cl(O14F3)2,4.905
mp-1223192,Na21ZnS10Cl3O40,4.350999999999999
mp-1221829,Na22CaFe6P12(O8F)6,2.3945
mp-758513,Na22In5O15,0.05609999999999982
mp-1212663,Na22S10Cl3O40,5.0754
mp-693682,Na25Zr11Sc5Si12(PO8)12,3.9101
mp-532091,Na26In4O19,1.2783
mp-677638,Na27Ca3Al5(P2O7)12,4.7813
mp-8411,Na2AgAs,0.7294
mp-1111192,Na2AgAsBr6,0.6909000000000001
mp-1111543,Na2AgAsCl6,1.1729
mp-1111093,Na2AgAsF6,1.94
mp-1104717,Na2AgF4,0.6142000000000001
mp-1111325,Na2AgIrF6,0.9993
mp-1111320,Na2AgRhF6,1.311
mp-7392,Na2AgSb,0.6588000000000003
mp-1111538,Na2AgSbCl6,1.5314
mp-1111317,Na2AgSbF6,1.6675
mp-1191319,Na2Al(P2O7)2,0.23490000000000005
mp-534773,Na2Al17Si11B7(H3O31)2,4.069699999999999
mp-1221522,Na2Al2(GeO4)3,0.3249000000000001
mp-1196695,Na2Al2(SiO4)3,0.8918999999999999
mp-17473,Na2Al2As3,1.1771000000000005
mp-554041,Na2Al2B2O7,4.3422
mp-648140,Na2Al2S3(Cl4O3)2,2.5887
mp-30039,Na2Al2Sb3,0.7215999999999996
mp-1173798,Na2Al2Si3(HO3)4,4.5218
mp-1210489,Na2Al2Si3(HO5)2,2.6104000000000003
mp-1199031,Na2Al2Si3H6O13,4.4705
mp-1020141,Na2Al2Si3O10,4.4468
mp-1204609,Na2Al2Si3O14,1.4552
mp-1221481,Na2Al3As9O28,1.8959
mp-1198443,Na2Al3P3(HO7)2,4.969099999999999
mp-1211222,Na2Al3Si3HNO12,0.3789
mp-1203545,Na2Al3Si3NO13,0.04570000000000002
mp-1111586,Na2AlAgBr6,1.1896
mp-1111545,Na2AlAgCl6,2.2175
mp-1111337,Na2AlAgF6,2.2248
mp-1111088,Na2AlAuF6,0.8919
mp-556195,Na2AlB(As2O7)2,2.7451
mp-556055,Na2AlCoF7,0.026399999999999983
mp-1221476,Na2AlCr(P2O7)2,3.2195
mp-1111082,Na2AlCuF6,0.2256999999999998
mp-1221399,Na2AlFe(SiO3)4,2.9441999999999995
mp-699582,Na2AlFeF7,3.3639
mp-643248,Na2AlH4ClO4,4.5162
mp-1111090,Na2AlInF6,2.8921
mp-616668,Na2AlNiF7,5.2253
mp-768146,Na2AlPCO7,5.0719
mp-706617,Na2AlSi3HO9,4.6627
mp-1110621,Na2AlTlF6,4.0711
mp-559982,Na2AlZnF7,4.8226
mp-7773,Na2AsAu,0.4184000000000001
mp-24367,Na2AsH15O11,4.1686000000000005
mp-1221674,Na2AsP(H4O5)2,4.0698
mp-767546,Na2AsPCO7,4.1675
mp-29953,Na2B29,0.1604000000000001
mp-29411,Na2B2S5,2.5898
mp-5004,Na2B2Se7,1.5493
mp-706631,Na2B3HO6,4.6148
mp-707151,Na2B4H20O17,5.0996
mp-706655,Na2B4H8O11,4.566
mp-1180429,Na2B4O17,0.14860000000000007
mp-17941,Na2B4O7,4.618
mp-720312,Na2B5H3O10,4.9795
mp-720593,Na2B5H5O11,4.9627
mp-720406,Na2B5H5O12,0.06840000000000003
mp-1180492,Na2B5O11,0.2198
mp-542300,Na2B8O13,5.4478
mp-690684,Na2BH4ClO4,4.583799999999999
mp-556125,Na2BHO3,3.8046
mp-1191673,Na2BSO4F3,5.7577
mp-771026,Na2BSbSO7,3.4585
mp-554828,Na2Be(GeO3)2,3.7105
mp-556013,Na2Be(SiO3)2,4.7851
mp-555182,Na2Be2(SiO3)3,4.5404
mp-754663,Na2Be2O3,4.268000000000002
mp-1221869,Na2Be3Si3O8,0.057500000000000114
mp-16737,Na2BeB2O5,4.7145
mp-1210352,Na2BeCl4,5.4526
mp-3318,Na2BeF4,6.6745
mp-18197,Na2BeGeO4,3.7017
mp-568987,Na2BeH4,4.5899
mp-28588,Na2BeO2,2.7941000000000003
mp-1198346,Na2BeSi4(H4O7)2,4.838
mp-17183,Na2BeSiO4,4.5446
mp-780246,Na2Bi4O7,2.5380000000000003
mp-557830,Na2Bi5AuO11,0.8920000000000003
mp-1176418,Na2BiAsCO7,3.4952
mp-1078709,Na2BiAu,0.36960000000000015
mp-1176416,Na2BiBAsO7,0.16440000000000002
mp-771773,Na2BiBPO7,0.029200000000000007
mp-772048,Na2BiBSO7,3.0667
mp-761686,Na2BiO3,1.1827000000000003
mp-768140,Na2BiPCO7,3.4772000000000003
mp-1221385,Na2BrCl,4.2059
mp-1221444,Na2BrClO6,4.6667000000000005
mp-541989,Na2CN2,3.0386999999999995
mp-1201027,Na2CO3,4.1798
mp-28810,Na2CS3,1.215
mp-560545,Na2Ca(AsO3)4,2.6021
mp-1194807,Na2Ca(CO3)2,4.447
mp-1221459,Na2Ca(Ge3O7)2,2.7136
mp-541522,Na2Ca(PO3)4,5.3703
mp-1193943,Na2Ca(PO4)2,0.002800000000000025
mp-6397,Na2Ca(SO4)2,5.4777000000000005
mp-1222730,Na2Ca17Al12O36,3.7972
mp-706342,Na2Ca17V2(PO4)14,1.9593
mp-557391,Na2Ca2(CO3)3,4.8329
mp-1221806,Na2Ca2(SiO3)3,4.4102
mp-735808,Na2Ca29ZrSi16(O7F2)8,2.3014
mp-1204300,Na2Ca2Al6Si9(H8O19)2,4.8355
mp-1221915,Na2Ca2Zr2MnFeSi4O17F,1.5707
mp-558087,Na2Ca3(Si3O8)2,4.3043
mp-555730,Na2Ca3Al2F14,7.143
mp-707645,Na2Ca3B5H2S2ClO18,5.481
mp-556679,Na2Ca3Si3O10,4.3798
mp-558033,Na2Ca3Ta2O9,3.7128
mp-1210816,Na2Ca4YZrSi4(O5F)3,4.6888000000000005
mp-1210786,Na2Ca4ZrNbSi4(O8F)2,0.6502999999999997
mp-6903,Na2Ca4ZrNbSi4O17F,3.7724
mp-745155,Na2Ca6Mg7Fe(SiO3)16,0.01949999999999985
mp-720432,Na2Ca9NdY5HoF41,6.1081
mp-1210794,Na2CaAl10(H3O10)2,0.06040000000000001
mp-1210671,Na2CaFe2(PO4)3,0.3071999999999999
mp-24229,Na2CaH10C2O11,4.6291
mp-1195650,Na2CaH4(CO4)2,4.7421000000000015
mp-556232,Na2CaMg(PO4)2,5.0991
mp-1221470,Na2CaMg5Si8(O11F)2,4.5371000000000015
mp-1221526,Na2CaMn3(SiO3)6,0.1715
mp-1223383,Na2CaNb4Bi2O15,2.2356000000000003
mp-1180413,Na2CaP2O11,0.7535
mp-561260,Na2CaP2O7,4.954700000000001
mp-559376,Na2CaPO4F,4.7508
mp-697211,Na2CaPb3(CO3)5,3.7778
mp-1221375,Na2CaSi,0.3680999999999997
mp-1210899,Na2CaSi10(H3O10)2,1.4499
mp-555342,Na2CaSiO4,3.3361
mp-677095,Na2CaSn2(GeO4)3,2.3158000000000003
mp-695511,Na2CaTi2(GeO4)3,2.5739
mp-25134,Na2CaV4O12,2.9046
mp-566264,Na2CaVP2O9,2.5586
mp-1212565,Na2CaZr2Si10HO26,1.5298999999999998
mp-1180806,Na2CaZr2Si10O27,0.056200000000000035
mp-1210579,Na2CaZrSi2O7F2,4.6879
mp-1190146,Na2Cd(GeS3)2,2.2204
mp-558198,Na2Cd(SO4)2,3.8287
mp-555363,Na2Cd(SiO3)2,2.87
mp-1221478,Na2Cd2Fe(PO4)3,2.1171999999999995
mp-761024,Na2Cd2O3,0.3855
mp-555851,Na2Cd3(P2O7)2,3.0513000000000003
mp-6078,Na2Cd3Si3O10,2.4468
mp-28658,Na2CdCl4,3.6352
mp-698056,Na2CdH4(SO5)2,3.9833
mp-697888,Na2CdH4(SeO5)2,2.8694
mp-675693,Na2CdO2,0.7806
mp-558297,Na2Ce2TiSi(CO6)2,0.031899999999999366
mp-1111509,Na2CeCuCl6,0.2587999999999999
mp-1205754,Na2CeF6,2.1224
mp-1204151,Na2CeH2C5O11,0.14749999999999994
mp-1173761,Na2CeO3,2.0465000000000004
mp-1176428,Na2CePCO7,0.16299999999999934
mp-645487,Na2Co(NO3)4,3.1828000000000003
mp-19627,Na2Co(Si2O5)2,3.0632000000000006
mp-704577,Na2Co2(B4O7)3,2.7499
mp-774332,Na2Co2O3,0.7684000000000002
mp-1194231,Na2Co2Si8H72C24N4O,1.9392
mp-1176407,Na2Co3O4,0.6867999999999999
mp-699543,Na2Co5Mo4(ClO4)4,2.3344
mp-765946,Na2Co6O7,0.6032000000000002
mp-1203292,Na2Co7H16(CO2)16,2.6959
mp-772664,Na2CoAsCO7,0.8344999999999999
mp-772330,Na2CoBAsO7,0.33030000000000004
mp-773380,Na2CoCSO7,2.2283
mp-27402,Na2CoCl4,0.7301
mp-559327,Na2CoGeO4,1.8251
mp-1203216,Na2CoH12(SO7)2,3.3080000000000003
mp-1203350,Na2CoH4(CO2)4,2.9995
mp-1180336,Na2CoH4(SeO5)2,2.3017000000000003
mp-735556,Na2CoH8(CO5)2,2.955
mp-25681,Na2CoH8(SO6)2,3.2849
mp-1210483,Na2CoNiF7,1.0769
mp-1200084,Na2CoP2O7,3.0943
mp-1203473,Na2CoP4(H2O3)6,2.6695
mp-762847,Na2CoP4(H4O5)4,3.2701
mp-770988,Na2CoPCO7,0.8388000000000001
mp-19563,Na2CoPO4F,2.9785000000000004
mp-771417,Na2CoSiCO7,0.15629999999999988
mp-1210475,Na2CoSiO4,2.1388
mp-745139,Na2Cr(HO)8,3.2169
mp-1211049,Na2Cr2H2O7,2.3699
mp-1199268,Na2Cr2H4O9,2.7229
mp-704459,Na2Cr2O7,2.5253
mp-780184,Na2Cr4O13,1.9072
mp-771511,Na2CrAsCO7,2.7118
mp-773178,Na2CrCSO7,2.3779
mp-28716,Na2CrCl4,0.7107999999999999
mp-565368,Na2CrCoF7,2.7271
mp-559007,Na2CrCuF7,0.00839999999999999
mp-558383,Na2CrF4,2.9927
mp-699648,Na2CrFeF7,2.0232
mp-973225,Na2CrH2F8,1.8303
mp-1211082,Na2CrH5C4O11,3.185
mp-566540,Na2CrNiF7,3.8792
mp-764193,Na2CrO4,2.8072
mp-769616,Na2CrPCO7,2.8714
mp-772476,Na2CrSiCO7,0.8636000000000001
mp-6090,Na2Cu(CO3)2,0.4934999999999998
mp-695830,Na2Cu(HO)4,0.5799000000000001
mp-1199156,Na2Cu(NO3)4,0.8076000000000001
mp-557171,Na2Cu(PO3)4,0.8701999999999999
mp-1180294,Na2Cu(SO5)2,0.233
mp-18033,Na2Cu(Si2O5)2,0.9892
mp-1203872,Na2Cu2(B4O7)3,0.5173000000000001
mp-555953,Na2Cu2Si4H4O13,0.1837
mp-559415,Na2Cu2Si4O11,0.2544000000000002
mp-1221671,Na2Cu2Si5(H3O8)2,0.4475
mp-18637,Na2Cu3(GeO3)4,0.3064
mp-649944,Na2Cu3(SiO3)4,0.4752999999999998
mp-510474,Na2Cu3H8(CO2)8,0.1621
mp-17625,Na2Cu4S3,0.3664999999999994
mp-573024,Na2Cu5(Si2O7)2,0.14040000000000008
mp-15685,Na2CuAs,0.6589999999999998
mp-1111289,Na2CuAsF6,0.7403
mp-771122,Na2CuBSO7,0.9653
mp-1111135,Na2CuBiBr6,0.6238000000000001
mp-1111510,Na2CuBiCl6,0.9423000000000004
mp-1111279,Na2CuBiF6,0.4539
mp-1176404,Na2CuCSO7,0.6618000000000002
mp-3237,Na2CuF4,0.8944999999999999
mp-708015,Na2CuH20C12(N2O3)6,0.8796999999999999
mp-722243,Na2CuH4(C2O5)2,0.7893000000000001
mp-721317,Na2CuH4(SO5)2,0.7692000000000001
mp-24228,Na2CuH6C2O9,0.6966000000000001
mp-7639,Na2CuP,0.6575000000000002
mp-6467,Na2CuP2O7,0.4913000000000001
mp-1205271,Na2CuP4H18N4O15,0.9889
mp-1111536,Na2CuSbCl6,0.6409000000000002
mp-1111272,Na2CuSbF6,0.4889000000000001
mp-555871,Na2CuSbS3,1.2331
mp-557123,Na2CuSi3O8,0.7571000000000001
mp-1194796,Na2Dy2B2TeO10,2.8782
mp-1111132,Na2DyCuCl6,1.5228
mp-566312,Na2DyMoPO8,4.1989
mp-768141,Na2DyPCO7,4.5321
mp-1197813,Na2DyPWO8,4.7656
mp-555104,Na2Er2B2O7,4.3493
mp-1195435,Na2Er2B2TeO10,2.9605
mp-1111508,Na2ErCuCl6,1.5764999999999998
mp-567364,Na2ErMoPO8,4.1855
mp-767573,Na2ErPCO7,4.3992
mp-1201517,Na2ErPWO8,4.7925
mp-556836,Na2EuC(OF)3,0.1379
mp-1196862,Na2Fe(SO5)2,0.4412
mp-1210473,Na2Fe2F7,1.5307
mp-1210544,Na2Fe2Ni(PO4)3,0.3586999999999998
mp-1196373,Na2Fe2P2O8F,0.6977
mp-566867,Na2Fe3(PO4)3,0.7719
mp-1221384,Na2Fe3SbO8,1.2891
mp-1221450,Na2Fe7(PO4)6,0.2273000000000001
mp-773610,Na2FeAsCO7,2.1419
mp-771805,Na2FeBAsO7,0.6268
mp-771801,Na2FeBPO7,0.4738
mp-771482,Na2FeCSO7,3.4153
mp-1210460,Na2FeCl4,0.1734
mp-573058,Na2FeCoF7,1.7807000000000002
mp-560466,Na2FeCuF7,0.05650000000000002
mp-1195527,Na2FeH4(SO5)2,4.3104
mp-540591,Na2FeH4C5(N2O)3,2.7696
mp-1196027,Na2FeH8(SO6)2,4.13
mp-1197871,Na2FeNi2(PO4)3,1.6941000000000002
mp-566483,Na2FeNiF7,2.769
mp-1176388,Na2FeO2,0.4065000000000003
mp-764467,Na2FeO3,0.7981
mp-19044,Na2FeO4,0.9990000000000001
mp-1176399,Na2FePCO7,2.3148
mp-1194940,Na2FePO4F,3.3857
mp-1197537,Na2FePO5,1.5720000000000005
mp-1190551,Na2FeSO4F3,2.2205000000000004
mp-1221475,Na2FeSn(PO4)3,2.4474000000000005
mp-15431,Na2Ga2As3,1.0249
mp-1173753,Na2Ga2Se3,1.1378
mp-1173829,Na2Ga2Si3(HO3)4,3.6314
mp-1111121,Na2GaAgCl6,0.8694
mp-1111329,Na2GaAgF6,1.5779
mp-1111305,Na2GaAuF6,0.2963
mp-565426,Na2GaNiF7,4.3409
mp-768120,Na2GaPCO7,3.7817
mp-583646,Na2Gd2B2O7,3.0607000000000006
mp-557538,Na2Gd2MgSi4(O6F)2,3.4215
mp-20763,Na2Gd2Ti3O10,1.7123999999999997
mp-1210500,Na2GdCl5,2.5469
mp-1204299,Na2GdMnAs2O9,0.4826000000000002
mp-1210527,Na2GdTa5O15,2.2267