task_id,pretty_formula,band_gap
mp-1192729,KHC(NO)2,0.8191999999999999
mp-24625,KHCN2,3.8763
mp-1211566,KHCN4O5,2.7665
mp-643989,KHCO2,4.3194
mp-634431,KHCO3,4.9715
mp-1200643,KHCS2N,2.6167
mp-23846,KHF2,6.9611
mp-626785,KHO,3.678
mp-634676,KHS,3.2295
mp-23800,KHSO4,5.4306
mp-24433,KHSeO3,4.2347
mp-707536,KHSeO4,3.5239
mp-1211876,KHf6CCl15,1.1513
mp-561312,KHfCuF7,0.3462
mp-9855,KHfCuS3,0.7601999999999998
mp-541298,KHfH2OF5,6.6561
mp-1040164,KHfMg30O31,0.6804999999999994
mp-772778,KHfPCO7,4.5952
mp-17429,KHfPdF7,0.6668
mp-14469,KHg(PO3)3,3.0375
mp-1095997,KHg2Bi,0.1363000000000003
mp-559765,KHg2S(ClO)3,2.6843
mp-1211303,KHg5Br11,2.1112
mp-1211367,KHg5Cl11,2.6225
mp-1180805,KHgBr3O,1.2144
mp-568604,KHgC2IN2,2.6356
mp-1201232,KHgC2N2ClO,0.9392
mp-18376,KHgC3(NO)3,3.2554
mp-630760,KHgC3(SN)3,1.8858
mp-7483,KHgF3,0.6158999999999999
mp-1211598,KHgH2Cl3O,2.3883
mp-1197812,KHgH2I3O,1.8534
mp-1190406,KHgI3,1.7697999999999998
mp-1191626,KHgI3O,1.4093
mp-10763,KHgSb,9.999999999976694e-05
mp-6678,KHgSbS3,1.8349
mp-9804,KHo(CO3)2,4.2582
mp-1211556,KHo(MoO4)2,3.5781
mp-554505,KHo(PO3)4,5.3316
mp-1211930,KHo(SO5)2,0.2006
mp-1192188,KHo(WO4)2,3.361800000000001
mp-1211594,KHo2Cl7,4.5680000000000005
mp-1203708,KHo2Cu(MoO4)4,1.1481999999999997
mp-1192205,KHo2Cu3Se5,1.1363000000000003
mp-11606,KHo2CuS4,1.036
mp-16559,KHo2CuSe4,0.9224
mp-31030,KHo2F7,6.916099999999999
mp-1211478,KHo3F10,7.0919
mp-558826,KHoBeF6,7.398199999999999
mp-735519,KHoCoSi2O7,3.0267
mp-1202279,KHoF4,6.8923999999999985
mp-24765,KHoH8RuC6(N3O2)2,3.6899
mp-754883,KHoO2,3.9758
mp-15786,KHoS2,2.3505000000000003
mp-558861,KI(OF)2,4.1474
mp-28634,KI3F16,4.1785
mp-1180825,KIBr2O,0.6723
mp-628908,KICl2,2.3655
mp-1080792,KICl2O,0.7809999999999999
mp-647366,KICl4,2.2151
mp-1192712,KICl4O,0.32320000000000004
mp-23562,KIO4,2.3612
mp-8709,KIn(GeO3)2,2.3073
mp-650228,KIn(MoO4)2,3.6425
mp-1223716,KIn(MoSe)6,0.8795999999999995
mp-1196864,KIn(PO4)2,0.2673
mp-1211816,KIn(PSe3)2,1.3006
mp-1195253,KIn(TeO3)2,2.8645
mp-567106,KIn(WO4)2,4.3157999999999985
mp-27599,KIn2F7,3.6596
mp-22199,KIn5S8,1.2568
mp-1224365,KIn7S8,1.1738
mp-1193408,KInBP2HO9,4.1136
mp-28529,KInBr3,2.2777
mp-22932,KInBr4,2.8234
mp-1112170,KInCl3,1.4002999999999997
mp-1112296,KInF3,2.2086
mp-1198950,KInH8(CO3)4,3.5818000000000003
mp-1213578,KInH8(SO6)2,3.9147
mp-677262,KInI4,2.5931
mp-1018031,KInO2,2.0788999999999995
mp-17966,KInP2O7,3.844700000000001
mp-22583,KInP2S7,2.0423
mp-568379,KInSnSe4,1.3747000000000005
mp-19851,KInTe2,0.9869
mp-1195953,KIrBr5NO2,0.29690000000000005
mp-1211443,KLa(MoO4)2,3.3406
mp-540962,KLa(PO3)4,4.8922
mp-560649,KLa(PS3)2,2.6742000000000004
mp-571662,KLa(PSe3)2,1.9746999999999997
mp-1211400,KLa(SO4)2,4.3106
mp-1211641,KLa(SeO4)2,3.4912
mp-1211473,KLa(WO4)2,3.8595
mp-554034,KLa2NbO6,3.7492
mp-571240,KLa5(CCl5)2,1.9383
mp-1098700,KLaAu2,0.06390000000000008
mp-1181157,KLaC4O11,0.6708
mp-1223532,KLaCO4,3.7206
mp-560078,KLaCr2O8,2.6531
mp-1223447,KLaF4,6.1227
mp-559043,KLaGeS4,2.3035999999999994
mp-21097,KLaGeSe4,1.6108999999999998
mp-1195845,KLaH2S2O9,4.4225
mp-1040324,KLaMg30O32,4.187099999999999
mp-1147623,KLaMoO5,3.2493000000000003
mp-7958,KLaO2,3.8678
mp-556475,KLaPdO3,0.4866000000000002
mp-15781,KLaS2,2.6928
mp-1211548,KLaS2O9,0.4245
mp-567129,KLaSi(CN2)4,3.6776
mp-861938,KLaSiS4,2.9376999999999995
mp-861606,KLaSiSe4,2.3528
mp-1223498,KLaTa2O7,2.2382000000000004
mp-11739,KLaTe2,1.7012999999999994
mp-1211901,KLaTiO4,2.3591
mp-559142,KLi(PO3)2,5.2914
mp-1178148,KLi(WO3)3,1.1264999999999998
mp-23945,KLi2(HO)3,2.7960000000000003
mp-735824,KLi2AlSi4(O5F)2,0.9792999999999998
mp-28994,KLi2As,0.6878
mp-558628,KLi2BO3,3.9989999999999997
mp-772421,KLi2FeO3,2.033
mp-780874,KLi2Mn2O4,1.0793
mp-764310,KLi2MnPCO7,3.0119
mp-759715,KLi2Sb(PO4)2,3.4314
mp-1197175,KLi3Ca7Ti2(Si6O19)2,0.6264000000000001
mp-641919,KLi3Ca7Ti2Si12(O18F)2,3.5221
mp-18002,KLi3GeO4,3.9368
mp-559106,KLi3PbO4,1.7254999999999998
mp-6844,KLi3Si12(SnO15)2,4.4356
mp-16055,KLi3Zr2(Si2O5)6,5.1525
mp-557268,KLi4AlO4,3.9726
mp-772252,KLi4CrO5,1.0179
mp-556902,KLi4NbO5,3.777
mp-23582,KLi6BiO6,1.4216000000000002
mp-9059,KLi6TaO6,4.3852
mp-707956,KLi7(H2N)8,2.6055
mp-6648,KLiB4O7,5.0827
mp-6253,KLiBeF4,6.8529
mp-562137,KLiCO3,4.5408
mp-765535,KLiCoO2,1.7016
mp-566105,KLiCrO4,2.8534
mp-1211571,KLiDy2(MoO4)4,3.2946
mp-1211563,KLiEr2(MoO4)4,3.2605
mp-1211850,KLiGd2(MoO4)4,2.9106
mp-764147,KLiH2WO5,4.9734
mp-699460,KLiH4S2(NO3)2,5.3356
mp-1211688,KLiHo2(MoO4)4,3.2659
mp-1021327,KLiICl,4.4304
mp-1211661,KLiLu2(MoO4)4,3.1915
mp-1040366,KLiMg30O31,2.7954
mp-559117,KLiMnO2,1.4212999999999998
mp-764313,KLiMnP3HO10,3.6249
mp-764256,KLiMnPCO7,0.8778
mp-753940,KLiMnS2,0.5546000000000002
mp-1199453,KLiMoO4,4.481
mp-636225,KLiNd2(MoO4)4,3.4237
mp-776912,KLiNiO2,1.9837
mp-559612,KLiO,2.3803
mp-690708,KLiPH2O4F,4.9035
mp-1211545,KLiPH3O3F,1.4553
mp-8430,KLiS,3.0571
mp-6800,KLiSO4,5.3245
mp-761143,KLiSb(PO4)2,0.27170000000000005
mp-8756,KLiSe,2.5249
mp-558102,KLiSi2O5,4.7068
mp-1211510,KLiSm2(MoO4)4,3.3775
mp-1178142,KLiSnO2,2.1389
mp-1211713,KLiTb2(MoO4)4,3.3279
mp-4495,KLiTe,2.4134
mp-776444,KLiTi2(PO5)2,3.1523000000000003
mp-1211810,KLiTm2(MoO4)4,3.2299
mp-1212005,KLiWO4,4.7976
mp-1211940,KLiWO5,0.7011999999999999
mp-1211586,KLiY2(MoO4)4,3.3003
mp-556237,KLiYF5,7.1638
mp-1223469,KLiZn3O4,1.5193
mp-551092,KLiZnO2,2.1715
mp-554164,KLiZnP2O7,4.2904
mp-774907,KLiZnS2,2.4361
mp-1211517,KLu(CO3)2,4.4597
mp-1211421,KLu(MoO4)2,4.0161
mp-1223523,KLu(NbCl3)6,1.0455
mp-1204010,KLu(SO5)2,0.2403000000000001
mp-18719,KLu(WO4)2,3.2443
mp-1211423,KLu3F10,7.129899999999999
mp-1178135,KLuO2,3.9398
mp-559395,KLuP2O7,5.1215
mp-1007636,KLuS2,2.4307
mp-1223508,KLuTa2O7,2.192
mp-14058,KMg(PO3)3,4.9473
mp-1185536,KMg149,0.018400000000000197
mp-1036571,KMg14AlO16,2.1514
mp-1035836,KMg14BO15,1.543
mp-1035823,KMg14BO16,2.5245999999999995
mp-1035863,KMg14CrO16,0.10109999999999976
mp-1036233,KMg14MnO16,0.3956
mp-1035811,KMg14WO16,2.0652
mp-1223578,KMg2AlFe(SiO4)3,0.9694
mp-1223617,KMg2AlFeSi3(HO6)2,2.7478
mp-1224176,KMg2As2H31O23,4.1782
mp-707457,KMg2B12H19O30,5.2772
mp-1224657,KMg2P2H31O23,4.3042
mp-561861,KMg2V3(CuO6)2,0.3007
mp-1211275,KMg3(SiO3)4,1.1056
mp-1098637,KMg30AlO32,4.246499999999998
mp-1040287,KMg30BO31,1.9395999999999995
mp-1040205,KMg30BO32,4.0231
mp-1040233,KMg30BiO32,3.4522000000000004
mp-1040199,KMg30CO32,0.5347
mp-1037121,KMg30CoO32,1.5404999999999998
mp-1040266,KMg30CrO32,3.5147
mp-1037604,KMg30FeO32,2.5838
mp-1040209,KMg30GaO32,4.314399999999999
mp-1038115,KMg30MnO32,1.8307
mp-1040167,KMg30SbO32,2.798899999999999
mp-1040245,KMg30SiO32,0.4369999999999994
mp-1098341,KMg30TiO32,0.6493000000000002
mp-1040243,KMg30WO32,3.2085000000000012
mp-1223527,KMg3AlGe3(O5F)2,2.9732000000000003
mp-1223564,KMg3AlSi3(HO6)2,4.1984
mp-1223512,KMg3AlSi3(O5F)2,4.3103
mp-1223599,KMg3AlSi3O11F,0.042999999999999934
mp-1211416,KMg3Cu(AsO4)3,0.9067000000000004
mp-1223547,KMg3GaSi3(HO6)2,4.0776
mp-1211434,KMg3V3CuO12,0.7918000000000001
mp-557844,KMg4(PO4)3,4.9852
mp-686653,KMg4Al9(SiO4)9,3.9502
mp-1019806,KMg6P7O24,5.1735
mp-720328,KMg8Al17Si19O72,3.7898
mp-1019089,KMgAs,1.1621
mp-1200428,KMgAs(H6O5)2,3.9966
mp-1195089,KMgAs3F18,4.6693
mp-1191101,KMgBO3,4.3848
mp-1019105,KMgBi,0.3855
mp-27865,KMgCl3,4.4851
mp-3448,KMgF3,6.9537
mp-1194865,KMgFe(PO4)2,2.4748
mp-1211898,KMgH(CO5)2,0.7867999999999999
mp-23737,KMgH3,2.458
mp-684725,KMgH5(SO5)2,0.002699999999999925
mp-23905,KMgH9(CO5)2,5.0253000000000005
mp-698655,KMgIn(MoO4)3,3.6155
mp-1223590,KMgMn2AlGe3(O5F)2,1.5294
mp-1181629,KMgNbO15,0.1633
mp-1018737,KMgP,1.6589
mp-721617,KMgP(H6O5)2,4.7532
mp-677617,KMgP2H5O9,2.6875
mp-558795,KMgPO4,4.5953
mp-7089,KMgSb,1.2672
mp-505094,KMgV3Cu4O13,0.0020999999999999908
mp-1205280,KMgV5O22,0.04620000000000002
mp-1211527,KMn(PO3)3,4.044600000000001
mp-565648,KMn(SeO4)2,1.2
mp-1104584,KMn2(MoO5)2,0.0911
mp-1104505,KMn2Cr2O10,0.15510000000000002
mp-1003314,KMn2O4,0.35660000000000003
mp-763582,KMn2P2HO9,0.5467
mp-1016190,KMn3O6,1.0661
mp-19614,KMn4(PO4)3,3.0707000000000004
mp-566676,KMn5(SeO3)6,0.4048000000000001
mp-1200457,KMn6As7O24,1.4105
mp-19562,KMn6P7O24,3.6268
mp-571384,KMnAg3(CN)6,1.544
mp-1195473,KMnAs3F18,3.8979
mp-29636,KMnBr3,1.7869
mp-567530,KMnCl3,1.9598
mp-1180902,KMnCl3O2,0.5482
mp-558046,KMnF3,2.7828
mp-558116,KMnF4,2.0244
mp-541666,KMnH2OF4,1.4975999999999998
mp-1192422,KMnH3(CO2)3,3.6635
mp-743617,KMnH4Cl3O2,4.0871
mp-1223556,KMnH5(SO5)2,4.3805999999999985
mp-1205906,KMnIO6,1.939
mp-566638,KMnO2,1.7774
mp-19046,KMnO4,2.0689
mp-20422,KMnP,0.003200000000000092
mp-1198325,KMnP(OF)3,1.4691
mp-542842,KMnP3HO10,0.7785000000000001
mp-773432,KMnPCO7,0.8876
mp-25048,KMnPH2O5,3.1331
mp-566456,KMnPO4,3.1953
mp-1223668,KMnSn3O8,0.09200000000000053
mp-578924,KMnVO4,2.5794
mp-562575,KMo(PO4)2,2.4394
mp-1211413,KMo2(P2O7)2,1.1162
mp-579378,KMo2(PO4)3,0.8635000000000002
mp-1203538,KMo2C4O11,0.4936
mp-565509,KMo2Cl7O2,2.6315
mp-566874,KMo2P3O13,2.6651
mp-531064,KMo3Br7,2.3695
mp-542113,KMo5O13,0.024999999999999908
mp-566049,KMoAsO6,2.6594
mp-699552,KMoCl4O,2.8031
mp-567002,KMoIO6,3.0051
mp-1191627,KMoO4,0.9402
mp-25058,KMoP2O7,3.8588
mp-1223809,KMoP3WO12,2.4821
mp-566892,KMoPClO5,2.01
mp-25084,KMoPO6,2.5431
mp-827,KN3,4.1559
mp-3768,KN3O4,2.8383000000000003
mp-34857,KNO2,2.4904
mp-5158,KNO3,2.9158
mp-647102,KNOF2,3.2687
mp-23758,KNa(BH4)2,6.3522
mp-1204380,KNa2(NiO2)2,0.2730999999999999
mp-17889,KNa2(PO3)3,5.0463000000000005
mp-23660,KNa22C2S9ClO42,4.3544
mp-1111019,KNa2AlF6,5.1958
mp-1205325,KNa2AlH6,2.4570000000000003
mp-1111018,KNa2AsF6,3.0424
mp-559067,KNa2AuO2,2.0423
mp-1019888,KNa2BN2,1.8152
mp-8263,KNa2BO3,2.7985
mp-545359,KNa2CuO2,1.5144
mp-541002,KNa2FeO3,2.1790000000000003
mp-1211711,KNa2Ga3(SiO4)3,3.9646
mp-1111013,KNa2GaF6,4.9444
mp-17785,KNa2GaO3,2.5055
mp-1111012,KNa2IrF6,1.3971
mp-19586,KNa2Li3Cr2(Si2O5)6,3.8415
mp-19560,KNa2Li3Fe2(Si2O5)6,3.3194
mp-542926,KNa2LiTi2Fe2(SiO3)8,2.0557
mp-1223707,KNa2LiTi2MnFe(SiO3)8,2.1243
mp-851118,KNa2LiZr2(Si2O5)6,4.7587
mp-565706,KNa2NiO2,1.4729
mp-1111007,KNa2RhF6,2.0696
mp-15724,KNa2Sb,0.6720999999999999
mp-1111407,KNa2SbF6,2.6565
mp-1111005,KNa2ScF6,5.0431
mp-15541,KNa2Si12(BO10)3,5.1362000000000005
mp-1198876,KNa2Tb(SiO3)8,0.04149999999999998
mp-1093779,KNa2Tl,0.36060000000000025
mp-1223632,KNa2WN3,2.0551
mp-555155,KNa2Y(Si2O5)3,4.8143
mp-14536,KNa2Zn3(PO4)3,3.9
mp-1224323,KNa3Al12H24(SO7)8,5.4671
mp-1205072,KNa3Al12Si12(HO6)8,4.7098
mp-573281,KNa3Al4(GeO4)4,3.3229000000000006
mp-559901,KNa3Al4(SiO4)4,4.5052
mp-1078554,KNa3H4,2.9382
mp-1223410,KNa3Mg4F12,6.5686
mp-1212159,KNa3W2O17,0.4159999999999999
mp-566869,KNa3WO5,3.593
mp-1223387,KNa4Cl5,4.9293
mp-1205067,KNa4FeO4,2.0824000000000003
mp-14428,KNa4GaO4,2.6018
mp-16921,KNa4GeAs3,0.6355999999999999
mp-6758,KNa4SnSb3,0.4226000000000001
mp-1182192,KNa4Te2PdO22,0.0005999999999999893
mp-1223392,KNa5TeO6,0.9788
mp-695648,KNa6Al7Si9O32,3.8663
mp-1223470,KNa7Al8(SiO4)8,4.3752
mp-556521,KNa7Pb2O7,0.8484
mp-1099912,KNa7V6Cr2O20,0.033999999999999815
mp-1076821,KNa7V7CrO20,0.5669
mp-1099669,KNa7V7MoO20,0.06769999999999987
mp-1076630,KNa7V8O20,0.7664000000000004
mp-1223519,KNa7V8O24,3.2226
mp-553903,KNa9In2O8,1.7136
mp-1197973,KNaAl6Si6(HO6)4,4.7234
mp-1223483,KNaAs6(PbO3)8,3.4888
mp-1226150,KNaCa2(SiO3)8,0.4599
mp-1224270,KNaCa3Mg10(SiO3)16,3.2703
mp-1223435,KNaCaMg5Si8(O11F)2,4.6584
mp-1223475,KNaCaTh(Si2O5)4,4.9069
mp-1223313,KNaCl2,4.9559
mp-543047,KNaCu(Si2O5)2,0.8046000000000002
mp-554726,KNaCu3S3O13,0.07350000000000012
mp-1213094,KNaCuP4H18N4O15,0.9875
mp-20737,KNaEuNbO5,0.06790000000000007
mp-19130,KNaFe(Si2O5)2,2.9975
mp-13170,KNaGdNbO5,2.7177999999999995
mp-863031,KNaGdTaO5,2.7073
mp-558085,KNaGeO3,3.0314
mp-1007637,KNaH2,2.5014000000000003
mp-696179,KNaH6PtC4N4O3,1.3944
mp-1223505,KNaHf4(PO4)6,4.995399999999999
mp-1096326,KNaHg2,0.024699999999999944
mp-1002081,KNaICl,4.0086
mp-10942,KNaLaNbO5,3.638700000000001
mp-861868,KNaLaTaO5,3.7157
mp-14484,KNaLi2(SO4)2,5.2971
mp-1223318,KNaMg2F6,6.371
mp-561491,KNaMg2Si4(O5F)2,5.2111
mp-1040313,KNaMg30O31,2.7686
mp-1223684,KNaMg3Zn2(Si2O5)6,4.2498000000000005
mp-690914,KNaMg5(Si2O5)6,4.7418000000000005
mp-647442,KNaMn(Si2O5)2,3.0188000000000006
mp-565897,KNaMnO2,0.5945
mp-975958,KNaMo(OF2)2,2.2123
mp-1076606,KNaMo2O5,0.4452999999999996
mp-1076195,KNaMoWO5,0.5348000000000002
mp-1076659,KNaMoWO6,0.21160000000000026
mp-1223364,KNaNb2O6,1.9746
mp-1198462,KNaNbOF5,4.3759
mp-558212,KNaNdNbO5,3.4371
mp-861607,KNaNdTaO5,3.5102
mp-6948,KNaO,2.1323
mp-504943,KNaP2H2O7,5.2201
mp-1223429,KNaP6(PbO3)8,3.3638
mp-558317,KNaPrNbO5,3.4049
mp-861944,KNaPrTaO5,3.4550000000000005
mp-707463,KNaReH9,5.4451
mp-28383,KNaS,2.4851
mp-555576,KNaS2O7,5.2181000000000015
mp-558632,KNaSO4,4.9597
mp-28595,KNaSe,2.0161
mp-557679,KNaSi2O5,4.2837
mp-1211795,KNaSi5SnW3O13,0.4565999999999999
mp-556934,KNaSiF6,6.980499999999998
mp-556438,KNaSmNbO5,3.4945
mp-861957,KNaSmTaO5,3.8959
mp-555076,KNaSnF6,5.1714
mp-1223494,KNaSr8(BO3)6,3.784
mp-8755,KNaTe,1.9491
mp-1192905,KNaTe(HO)6,4.1549000000000005
mp-556741,KNaThF6,6.588800000000001
mp-1211611,KNaTi2(PO5)2,3.083
mp-1223389,KNaTi4(BiO6)2,2.3305
mp-1223398,KNaTi4(PO4)6,2.4799
mp-1212264,KNaTiH2O3F4,2.6844
mp-560767,KNaTiO3,3.5352
mp-1212364,KNaTiSi3(HO5)2,3.3759
mp-19432,KNaV2O6,3.2404
mp-1224220,KNaV6(PbO3)8,2.9653
mp-1099945,KNaW2O5,0.3849999999999998
mp-557183,KNaZnO2,1.7773
mp-554157,KNaZnP2O7,4.2038
mp-684950,KNaZr2Be(PO4)4,2.6611
mp-773906,KNaZrSi3H4O11,4.920400000000001
mp-567177,KNb(AgSe2)2,1.4594999999999998
mp-1200391,KNb(BO3)2,3.5465
mp-1106233,KNb(CuS2)2,1.7013999999999996
mp-6599,KNb(CuSe2)2,1.4205
mp-17377,KNb(PO4)2,3.1667
mp-1223649,KNb2(PS6)2,0.3226
mp-1192824,KNb2Cl11,2.0711
mp-773047,KNb2PO8,2.2181
mp-542972,KNb2PS10,1.4962
mp-1195772,KNb2PSe10,0.8182
mp-1223540,KNb3(PO5)3,0.01639999999999997
mp-1211979,KNb3CuO9,0.2936000000000001
mp-27998,KNb3O8,2.4762
mp-1211867,KNb3VCl11,0.17230000000000034
mp-1223407,KNb4Ag(PS10)2,1.4144999999999994
mp-1223401,KNb4AsO13,2.4046
mp-1223445,KNb4Bi5O18,2.6569
mp-554863,KNb5O13,2.3545000000000003
mp-1223583,KNb5Pb2O15,1.8963
mp-675801,KNbCl6,2.1638
mp-7571,KNbF6,5.1345
mp-1029504,KNbN2,2.0359
mp-7375,KNbO3,2.3098
mp-767415,KNbPCO7,0.4433
mp-7938,KNbS2,0.8120000000000003
mp-7940,KNbSe2,0.6854999999999993
mp-560407,KNbSi2O7,3.431
mp-1194929,KNbV2O8,2.3798
mp-1223705,KNbW2O9,1.7248
mp-1223396,KNbWO6,3.035
mp-1223408,KNbWO7,0.7209
mp-557940,KNd(CO3)2,4.3598
mp-1211675,KNd(ClO)4,1.4052
mp-1211396,KNd(MoO4)2,3.3469
mp-6433,KNd(PO3)4,5.3418
mp-14665,KNd(SO4)2,5.6613
mp-1211600,KNd(SeO4)2,3.4156
mp-566034,KNd(WO4)2,3.8022
mp-1211758,KNd2Br5,0.4325000000000001
mp-11603,KNd2CuS4,0.9129
mp-558128,KNd2NbO6,3.6165
mp-669359,KNd3Te8,0.4398999999999997
mp-1223480,KNd9(Si3O13)2,4.464600000000001
mp-1211343,KNdF4,7.1653
mp-861866,KNdGeS4,2.3612
mp-1201323,KNdH6C4O11,3.31
mp-754158,KNdO2,3.7108
mp-558831,KNdPdO3,0.6506000000000003
mp-1006885,KNdS2,2.2595
mp-11740,KNdTe2,1.2648
mp-11010,KNdTe4,0.1499000000000006
mp-1211538,KNdTiO4,2.3542000000000005
mp-567084,KNi(PO3)3,4.953
mp-1223496,KNi2H3(SeO5)2,2.6489999999999996
mp-565287,KNi3As3O11,2.5344
mp-1198941,KNi3P3O11,3.888900000000001
mp-647244,KNi4(PO4)3,3.5552
mp-566733,KNiAs3F18,4.5184
mp-566823,KNiAsO4,2.7959
mp-567861,KNiAu3(CN)6,1.3539
mp-27366,KNiCl3,0.7022999999999999
mp-560976,KNiF3,4.3222000000000005
mp-743854,KNiH9(CO5)2,4.4696
mp-557733,KNiIO6,1.7517999999999998
mp-644129,KNiPH2O5,4.0044
mp-1193290,KNiPO10,0.3185
mp-25713,KNiPO4,3.3989000000000003
mp-662530,KNiPS4,0.9783
mp-1080695,KNp(CO3)2,0.1379999999999999
mp-1211682,KNp2F9,0.012500000000000178
mp-16866,KNpN3O11,0.10220000000000007
mp-998913,KO3,0.8420000000000001
mp-1211882,KO4F,0.9502
mp-7984,KOsF6,1.3684
mp-1106210,KOsN(Cl2O)2,0.03159999999999996
mp-1223372,KOsNO3,2.6710000000000003
mp-7441,KP,1.0307
mp-642648,KP(HO)2,5.1321
mp-1211399,KP(HO)4,1.4768
mp-23959,KP(HO2)2,5.4325
mp-559062,KP(OF)2,5.2365
mp-1211471,KP15,1.5176000000000005
mp-1211785,KP2(HO2)4,0.2434000000000001
mp-561218,KP2Au5S8,1.4084
mp-976587,KP2AuS7,1.5376
mp-1197171,KP2H5O8,5.600899999999998
mp-707368,KP2H8SN7O2,4.5052
mp-1223360,KP2NO8,0.000199999999999978
mp-1223452,KP2W7O25,0.5717999999999999
mp-1223454,KP4(WO4)8,1.2862
mp-505495,KP4N7,3.7455
mp-862850,KPAuSe3,1.0152
mp-4608,KPF6,7.0206
mp-707238,KPH2O3,3.9123
mp-643033,KPH2SO3,4.5181
mp-696528,KPH3NO3,4.8289
mp-706608,KPH3O3F,6.6406
mp-1197097,KPH3O4,5.2683
mp-761185,KPH3O4F,5.7538
mp-541083,KPH5C2S2(NO)3,3.4045
mp-722316,KPH5C2SN3O4,3.7596
mp-23942,KPHNO2,5.2353000000000005
mp-1211912,KPHO3,5.2997999999999985
mp-758619,KPHO3F,5.1778
mp-5039,KPO3,5.0422
mp-638150,KPPbS4,2.3166
mp-866637,KPPdS4,1.4769999999999999
mp-8267,KPS3,1.7034999999999998
mp-1019891,KPSO2,4.1722
mp-569702,KPSe3,1.41
mp-773250,KPWCO7,2.8067
mp-1206970,KPaO3,3.0821
mp-21526,KPb,0.3735
mp-31508,KPb2Br5,3.0729
mp-1191763,KPb2C2O6F,3.0860000000000003
mp-607267,KPb2Cl5,3.6137
mp-1102208,KPbBr3O,1.6146
mp-1211504,KPbI3,2.4462
mp-28574,KPbO2,1.4532000000000005
mp-28758,KPd2F5,0.2475
mp-1095520,KPd2O3,0.3048
mp-1211634,KPr(ClO)4,1.3657
mp-1211391,KPr(MoO4)2,3.3584
mp-1200142,KPr(PO3)4,5.3895
mp-1211534,KPr(PSe3)2,2.0026
mp-554057,KPr(SO4)2,5.5718000000000005
mp-14316,KPr(SeO4)2,3.4507
mp-1211425,KPr(WO4)2,3.8494
mp-567710,KPr3Te8,0.4675000000000002
mp-1223605,KPr5(CCl5)2,2.166
mp-1223421,KPr9(Si3O13)2,4.4433
mp-18040,KPrF4,7.1314
mp-12012,KPrGeSe4,1.6332
mp-4519,KPrO2,3.6626
mp-755031,KPrPCO7,0.10989999999999987
mp-560569,KPrPdO3,0.5977999999999999
mp-15782,KPrS2,2.2658
mp-13538,KPrSiSe4,2.1773
mp-5273,KPrTe2,1.2799999999999998
mp-11132,KPrTe4,0.16909999999999936
mp-30533,KPt2S3,1.2689999999999997
mp-14796,KPt2Se3,0.9428
mp-1211422,KPtBr3N,0.0121
mp-1211559,KPtN2O5,0.6176
mp-561433,KPuCO5,0.4342999999999999
mp-510007,KPuP2S7,0.03690000000000016
mp-1114046,KRb2AlBr6,3.1546000000000003
mp-1113984,KRb2AlCl6,4.511
mp-1113768,KRb2AlF6,6.4263
mp-1114183,KRb2AlI6,1.7559
mp-1114124,KRb2AsBr6,2.9048
mp-1114043,KRb2AsCl6,3.4247
mp-1113892,KRb2AsF6,4.556800000000001
mp-1114184,KRb2AsI6,2.0398
mp-1114398,KRb2AuCl6,0.2681
mp-1113893,KRb2AuF6,0.7616
mp-554941,KRb2BiF6,4.7975
mp-1223355,KRb2CO3F,3.5252
mp-1203661,KRb2CrF6,3.905
mp-1206427,KRb2CuF6,1.0478999999999998
mp-1114044,KRb2DyCl6,4.7465
mp-1114041,KRb2ErCl6,4.761
mp-561067,KRb2FeF6,4.0965
mp-1114039,KRb2GaBr6,2.0358
mp-1114040,KRb2GaCl6,3.3110000000000004
mp-13190,KRb2GaF6,5.8894
mp-1114181,KRb2GaI6,0.8349
mp-1114037,KRb2GdCl6,3.0768
mp-1114122,KRb2InBr6,2.3909
mp-989529,KRb2InCl6,3.5425000000000004
mp-1211320,KRb2InF6,5.336
mp-1114178,KRb2InI6,1.2656
mp-1113764,KRb2IrF6,2.2735000000000003
mp-1114123,KRb2LaCl6,4.6475
mp-1114035,KRb2LuCl6,4.7797
mp-1223386,KRb2Mo(OF)3,2.775
mp-554168,KRb2MoF6,3.6937
mp-1096761,KRb2Na,0.2456999999999998
mp-14036,KRb2RhF6,2.1662
mp-1114120,KRb2ScBr6,3.2201
mp-1114036,KRb2ScCl6,4.022
mp-9349,KRb2ScF6,6.3813
mp-1110633,KRb2ScI6,2.339
mp-1223349,KRb2SiF7,5.6909
mp-1114033,KRb2SmCl6,4.6999
mp-1114034,KRb2TbCl6,4.7384
mp-1114121,KRb2TlBr6,1.399
mp-1114031,KRb2TlCl6,2.3203
mp-1113872,KRb2TlF6,3.7558
mp-1114172,KRb2TlI6,0.4749
mp-1114032,KRb2TmCl6,4.7674
mp-557411,KRb2VF6,2.5191000000000003
mp-1223393,KRb2W(OF)3,3.4953
mp-7012,KRb2YF6,6.3831000000000016
mp-39542,KRb2ZrOF5,4.5842
mp-570158,KRb3CdCl6,4.0135000000000005
mp-677017,KRb5Zn4Sn5S17,1.5766999999999998
mp-1184997,KRbAu2,0.3876
mp-1223311,KRbCl2,4.9064999999999985
mp-1225031,KRbCuH12(SeO7)2,0.3841
mp-1211560,KRbGeO3,3.0018
mp-1096164,KRbHg2,0.1291
mp-1034150,KRbMg14O15,2.0140000000000002
mp-1040362,KRbMg30O31,2.6818
mp-1223322,KRbMnF6,3.2213
mp-1211605,KRbMnV2O7,2.5955000000000004
mp-1097334,KRbNa2,0.23249999999999996
mp-28760,KRbS,2.2214
mp-1223406,KRbTi4(PO4)6,2.5780000000000003
mp-555490,KRe2O4F7,3.0237
mp-1223731,KRe3(SO)4,0.28480000000000016
mp-720110,KRe3Os3(Se4Cl3)2,1.3025
mp-774754,KRe4O8F13,3.1295
mp-1223737,KRe6Se5Cl7O3,0.17779999999999996
mp-4757,KReO4,4.0028
mp-1203796,KRu(NO2)4,0.30770000000000003
mp-1202772,KRu2C4(ClO4)2,0.0048999999999999886
mp-8013,KRuF6,1.2199
mp-1287,KS,1.469
mp-1199269,KS2N(O2F)2,5.4297
mp-541214,KS2O3,3.7767
mp-1196514,KS3,1.7676
mp-1190914,KSNO3,1.6602
mp-6560,KSO2F,3.9815
mp-558546,KSO3,4.9933
mp-1200908,KSO6,0.5691
mp-618807,KSb(MoO4)2,2.5382