task_id,pretty_formula,band_gap
mp-756309,Ce4DyO9,2.1512
mp-1227560,Ce4Ga2S5O4,0.012599999999999945
mp-997498,Ce4GdO9,2.1471
mp-29776,Ce4Ge9Rh13,0.0018000000000002456
mp-1227491,Ce4P5SO28,0.06479999999999997
mp-561726,Ce4Si2S3O7,0.0015999999999998238
mp-541460,Ce4Si2Se3O7,0.0011999999999998678
mp-1228410,Ce4Si4N6O5,0.0730000000000004
mp-677082,Ce4Si4N7ClO3,0.006800000000000139
mp-754306,Ce4SmO9,2.1496000000000004
mp-1226854,Ce4SnO10,1.4772000000000007
mp-766123,Ce4ThO10,1.8416
mp-760491,Ce4Y2O11,1.8249
mp-686003,Ce4Y6O17,0.9173
mp-1226815,Ce4ZrO10,1.7630000000000001
mp-753763,Ce5Dy2O13,1.2663000000000002
mp-753088,Ce5Gd2O13,1.1899999999999995
mp-542005,Ce5Ge2Rh,0.0040999999999993255
mp-32613,Ce5O9,0.0004000000000008441
mp-753792,Ce5Sm2O13,1.3319
mp-21693,Ce5Sn4,0.0008999999999996787
mp-753355,Ce5Y2O13,1.2862
mp-1019595,Ce5Zr3O16,1.8294999999999997
mp-1214277,Ce6N8O33,0.022399999999999972
mp-530883,Ce6Y26O51,1.4873000000000005
mp-758094,Ce6Y2O15,1.8196999999999992
mp-1191683,Ce7ZrO16,1.8152
mp-677234,Ce8Gd2O19,1.6528
mp-675003,Ce8Nd2O19,1.8445
mp-1202277,CeAg(PO3)4,0.17550000000000046
mp-1226935,CeAg(PSe3)2,0.15479999999999985
mp-1213933,CeAg(WO4)2,0.022700000000000387
mp-1201100,CeAgS2O9,0.05590000000000006
mp-4817,CeAl5Ni2,0.0012999999999987464
mp-1101892,CeAs2,0.0813000000000006
mp-1195015,CeAsO3,0.057599999999999874
mp-10772,CeAsO4,0.14920000000000044
mp-1193745,CeAsO4F,1.4377000000000002
mp-1201951,CeAsO5F,0.6648
mp-10478,CeAsRh,0.027800000000000047
mp-556519,CeB2ClO4,0.2019000000000002
mp-1193133,CeB4ClO8,0.018799999999999928
mp-1198521,CeB5BrO11,0.08250000000000003
mp-1200378,CeB7IO15,0.43799999999999994
mp-642871,CeBMoO6,0.010600000000000165
mp-20882,CeBO3,0.0045000000000001705
mp-1189296,CeBS3,0.0519999999999996
mp-1183685,CeBeO3,0.7079999999999993
mp-686671,CeBeSiHO5,0.1875
mp-1025437,CeBi2SeO4,0.7007000000000003
mp-569850,CeBr3,0.08930000000000016
mp-20288,CeCO3F,0.17120000000000068
mp-1195398,CeCO4,1.2787999999999995
mp-21339,CeCoGe,0.0013999999999994015
mp-1194060,CeCr2O10,0.8392
mp-1213939,CeCu(WO4)2,0.05869999999999996
mp-2801,CeCu2,0.000300000000000189
mp-12562,CeCu5Au,0.0008999999999996787
mp-21708,CeCu6,0.007699999999999819
mp-542001,CeF4,2.1
mp-776515,CeFeO3,0.6735999999999995
mp-21647,CeGePd,0.0016999999999995907
mp-1199725,CeH(SeO3)2,0.07359999999999989
mp-1237032,CeH12N5F4,0.0004999999999999449
mp-505786,CeH14Cl3O7,0.02259999999999973
mp-554484,CeH16C4Cl3O4,0.30999999999999983
mp-1204992,CeH16N7O19,0.1862999999999999
mp-1202113,CeH8(SO6)2,1.0549000000000002
mp-510452,CeHSO5,0.019700000000000276
mp-1213799,CeHf2F11,0.16400000000000015
mp-1039949,CeHfMg30O32,0.12929999999999886
mp-770372,CeHfO4,1.8099
mp-1025426,CeI3,0.02329999999999988
mp-21492,CeInNi,0.002299999999999969
mp-1213931,CeMg(BO2)5,0.13729999999999976
mp-13505,CeMg2Ni9,0.006199999999999761
mp-1039958,CeMg30BO32,0.3940999999999999
mp-1232197,CeMgS3,0.3120000000000003
mp-1232259,CeMgSe3,0.07989999999999986
mp-542723,CeMnSbO,0.0004999999999997229
mp-542272,CeMo5O8,0.1473999999999993
mp-1194116,CeMoBrO4,0.20900000000000007
mp-1192442,CeMoO4F,0.0030000000000001137
mp-1213942,CeN(ClO)4,0.6549
mp-1214460,CeN2Cl5,0.00030000000000002247
mp-1197736,CeN3O13,0.05380000000000007
mp-1226623,CeNd4Zr3O14,2.1769000000000003
mp-1226589,CeNdAl2O6,0.007700000000001594
mp-20616,CeNiGe,0.001100000000000101
mp-777024,CeNiO3,0.9323000000000006
mp-22539,CeNiSb2,0.004400000000000404
mp-722790,CeP2(HO4)2,0.5111000000000001
mp-1192958,CeP2(NO4)2,0.014399999999999968
mp-1213838,CeP2N2O9,0.00880000000000003
mp-22524,CeP2O7,1.5859
mp-505610,CeP3H8O7,0.1740999999999997
mp-1203734,CeP3O14,0.3648
mp-662607,CeP4(ClO)13,3.175
mp-1196668,CeP4H50C12Cl3O11,0.19399999999999995
mp-1213804,CeP4NO12,0.9493999999999998
mp-1199266,CeP5N2O15,0.0875999999999999
mp-1201068,CeP5O14,0.16129999999999978
mp-8382,CePO4,0.1676000000000002
mp-561261,CePS4,0.0754999999999999
mp-1214439,CePbO3,0.7341000000000006
mp-1200659,CeRh2O5,0.6142000000000003
mp-1213833,CeS2NO8,0.5265
mp-1203647,CeSO6,0.055999999999999835
mp-1204842,CeSbMo2O9,0.09609999999999984
mp-16097,CeSc3(BO3)4,0.2249000000000008
mp-29466,CeSi3N5,0.24270000000000105
mp-22225,CeSiBO5,0.17140000000000022
mp-10523,CeSiO4,1.4477999999999995
mp-510359,CeSn2Rh,0.0007999999999999119
mp-1226511,CeSnO4,1.5343
mp-1213884,CeTa7O19,0.07819999999999983
mp-1226851,CeTaTiO6,0.004100000000000215
mp-1102615,CeTeCl,0.0017999999999993575
mp-752798,CeTh2O6,1.8351
mp-1226598,CeTh3O8,1.9033000000000009
mp-1226577,CeTh4O10,1.7345000000000006
mp-760080,CeTh9O20,1.9639999999999995
mp-36734,CeThO4,1.6536000000000008
mp-1214015,CeTl(PO3)4,0.1925999999999997
mp-1194799,CeTl(PS3)2,0.14119999999999955
mp-1195195,CeTl(PSe3)2,0.1372
mp-1213909,CeTl2(PO3)5,0.19559999999999975
mp-1195336,CeTlP2S7,0.141
mp-18769,CeVO3,0.04359999999999964
mp-21667,CeZn(BO2)5,0.13739999999999952
mp-1226468,CeZnAgP2,0.006999999999999672
mp-752706,CeZr11O24,1.9568000000000003
mp-1213767,CeZr2F11,0.1513
mp-1226467,CeZr2O6,1.7288999999999994
mp-1226592,CeZr3O8,1.9677
mp-1226489,CeZr4O10,1.7954999999999997
mp-555444,CeZr6(PO4)9,0.24250000000000016
mp-757324,CeZr6O14,2.1519999999999997
mp-752503,CeZr7O16,1.9389
mp-766370,CeZr9O20,2.2773000000000003
mp-22724,CeZrF7,0.3047000000000004
mp-1019596,CeZrO4,1.8185
mp-1213787,Cl(OF)2,0.5133000000000001
mp-29537,Cl2O,1.0529000000000002
mp-31050,Cl2O7,3.6565
mp-29504,ClF,2.0481000000000003
mp-619575,ClF3,2.4608
mp-1213763,ClF5,3.1003000000000003
mp-1213922,ClO,1.7077999999999998
mp-23207,ClO2,0.9640000000000001
mp-22869,ClO3,1.3649
mp-1213825,ClO5,0.518
mp-1181851,ClO6,0.0019000000000000128
mp-753945,ClOF3,3.6499
mp-1096874,Co(AsO2)2,1.9922
mp-19292,Co(AsO3)2,1.9812
mp-1104788,Co(BO2)2,2.4262
mp-694906,Co(Bi3O5)4,1.1879
mp-706332,Co(Bi5O8)5,0.4478
mp-1191659,Co(C2O3)2,0.5139
mp-609229,Co(CO)4,2.6524
mp-762909,Co(CO3)2,0.6718000000000002
mp-31621,Co(ClO4)2,2.9877
mp-1043245,Co(GeO3)2,0.5783
mp-1213770,Co(H3Cl)2,0.4404
mp-625953,Co(HO)2,2.4776
mp-647180,Co(IO3)2,2.5001999999999995
mp-1182727,Co(Mo3O17)2,0.0016000000000002679
mp-1215110,Co(MoO6)3,0.05969999999999985
mp-1214972,Co(N2O5)2,0.0444
mp-1191682,Co(N3O4)3,0.4282
mp-1182597,Co(N4Cl)2,0.232
mp-1214815,Co(NF3)4,0.6522999999999999
mp-542071,Co(NO3)2,1.8306
mp-773130,Co(NO3)4,0.043099999999999916
mp-1193956,Co(NO6)2,0.5708000000000002
mp-772058,Co(NiO2)4,0.2149000000000001
mp-1213753,Co(PO2)2,1.7012
mp-547237,Co(PO3)2,2.9753000000000007
mp-585227,Co(PO3)3,1.5263
mp-19238,Co(PtO2)3,0.3761999999999999
mp-1181686,Co(ReO4)2,2.1282
mp-560516,Co(RhO2)2,0.7908
mp-1193389,Co(SbO2)2,1.6323999999999996
mp-24845,Co(SbO3)2,0.2839999999999998
mp-1190800,Co(SeO4)2,0.5467
mp-1043669,Co(Si2O5)2,1.0566
mp-1042286,Co(SiO3)2,0.8842000000000001
mp-29187,Co(SiP)3,1.2515999999999998
mp-1203320,Co(W3Cl7)2,0.4644000000000002
mp-769432,Co15O28,0.4835
mp-997509,Co2(CO3)3,0.7647999999999999
mp-2956,Co2(GeS)3,0.5346000000000002
mp-5094,Co2(GeSe)3,0.4079999999999995
mp-2994,Co2(GeTe)3,0.7490000000000006
mp-1101577,Co2(PO3)5,0.043300000000000116
mp-770008,Co2(SO4)3,0.4141
mp-570152,Co2(SnSe)3,0.33840000000000003
mp-866481,Co2(SnTe)3,0.4171000000000005
mp-1229319,Co20(As4O19)3,0.09320000000000016
mp-761377,Co21Cu3O32,1.5497999999999998
mp-705564,Co23O32,0.3022999999999998
mp-705563,Co29O40,0.26370000000000005
mp-1181748,Co2Ag3SbO6,0.3729
mp-705094,Co2As2O5,1.9352
mp-1204772,Co2As2O7,1.6224000000000005
mp-1196672,Co2As2O9,0.8718
mp-559418,Co2AsClO4,2.6492000000000004
mp-1202958,Co2AsHO5,1.8806000000000005
mp-510055,Co2B2O5,2.6081000000000003
mp-1213790,Co2BO4,0.468
mp-1199458,Co2BP4H2Pb4ClO18,3.0194
mp-690537,Co2Bi11O20,1.0501000000000005
mp-1201553,Co2BiB(PO5)2,3.0324
mp-1178537,Co2C2O7,0.7916000000000001
mp-617011,Co2C5SO5,1.2426
mp-1182699,Co2CN9(Cl2O3)2,0.3148
mp-1102538,Co2ClO3,0.01949999999999985
mp-561853,Co2GeO4,1.1406
mp-763815,Co2H21I7(N2O)3,0.06940000000000003
mp-744397,Co2H21S3(NO2)6,0.5585
mp-604239,Co2H34N12Cl3O10,0.3024
mp-1199703,Co2H36N13Cl5O3,2.4139
mp-542517,Co2Hg2H2S2O11,1.5807000000000002
mp-1214084,Co2Hg2H3(SO5)2,0.5820999999999998
mp-1213868,Co2NO6,0.07510000000000001
mp-782822,Co2P2H12O13,3.0964
mp-541410,Co2P2H4O9,2.9966000000000004
mp-1213809,Co2P2NO8,0.9387
mp-559697,Co2P2O7,2.8808
mp-1226671,Co2P3H11N2O9,2.612
mp-540204,Co2P3O10,0.516
mp-622183,Co2PClO4,2.6014
mp-25736,Co2PH2CO7,2.6355000000000004
mp-541452,Co2PHO5,2.3899
mp-1213796,Co2PO4F,2.8554
mp-1192102,Co2Sb2O7,0.7933000000000003
mp-24884,Co2Si(P2O7)2,3.0023
mp-1226449,Co2SiGe,0.018199999999999328
mp-25474,Co2SiO4,2.4801
mp-653922,Co2SnC8(ClO4)2,2.5075000000000003
mp-1199318,Co2SnC8SeO8,1.7906
mp-36028,Co2SnO4,1.2959999999999994
mp-687088,Co2TeBr2O3,2.3675
mp-561643,Co2TeCl2O3,2.4064000000000005
mp-1195741,Co2TeSO8,0.32299999999999995
mp-636571,Co3(AsO4)2,1.7669
mp-1047608,Co3(AsO4)4,0.10560000000000004
mp-24876,Co3(BO3)2,2.1624
mp-763923,Co3(OF2)2,0.4739
mp-540500,Co3(P2O7)2,0.020000000000000014
mp-31597,Co3(P3O10)2,0.1933
mp-19264,Co3(PO4)2,2.713
mp-31554,Co3(PO4)4,0.008
mp-1213793,Co3(PO8)2,0.009299999999999977
mp-1201339,Co3(SO6)2,0.04029999999999995
mp-775276,Co3(SeO3)4,0.0036000000000000476
mp-1203651,Co3Ag(AsO4)3,0.15500000000000025
mp-542160,Co3Ag2(P2O7)2,2.1641
mp-1226919,Co3Ag2P3HO12,1.9754
mp-25684,Co3AgP3(HO6)2,2.4393
mp-1213858,Co3As2(HO)16,2.1531
mp-654358,Co3B7BrO13,2.146
mp-25674,Co3B7ClO13,2.2683000000000004
mp-25675,Co3B7IO13,2.2509
mp-1197938,Co3B7O13F,2.9329
mp-1182673,Co3BO5,1.0282999999999998
mp-1191869,Co3BPO7,2.2552
mp-617237,Co3Bi(CO)9,2.2249
mp-774284,Co3BiO8,0.3960999999999999
mp-623047,Co3C10ClO9,2.1077
mp-647768,Co3C10O9,1.6887
mp-559479,Co3C2(SeO5)2,2.0915
mp-744440,Co3C7S2O7,1.7057
mp-704489,Co3C9SO9,1.0603
mp-745113,Co3C9SeO9,1.0421
mp-1226601,Co3Cu3(TeO6)2,0.359
mp-645902,Co3Ge(CO)10,1.9585
mp-541296,Co3H2Se3O10,2.4859999999999998
mp-1178437,Co3Ni2Te3O16,0.16920000000000002
mp-851314,Co3Ni3(TeO8)2,0.16469999999999985
mp-780745,Co3OF5,1.1726
mp-1204587,Co3P2(H2O3)4,2.8436000000000003
mp-541288,Co3P2(H2O5)2,2.8116000000000003
mp-1202701,Co3P2(HO)16,2.5200000000000005
mp-604558,Co3P2H2O9,2.5884
mp-1200021,Co3P4H8N2(O3F)4,2.2807
mp-572918,Co3P4PbO14,2.8625000000000003
mp-775453,Co3P6WO24,0.1457
mp-768012,Co3Sb(PO4)4,0.13670000000000027
mp-1105290,Co3Sb4(OF)6,2.6503000000000005
mp-1105151,Co3Se4(ClO5)2,2.6387
mp-1226179,Co3SiGe2,0.020500000000000185
mp-775131,Co3Sn(PO4)4,0.3898999999999999
mp-705298,Co3SnC12BrO12,2.327
mp-1202020,Co3SnC12ClO12,2.3021
mp-645717,Co3TeO6,1.0655000000000006
mp-778880,Co4(P2O7)3,0.8935000000000001
mp-19343,Co4B6O13,2.8024
mp-652229,Co4Ge(CO)13,1.9580000000000002
mp-1226415,Co4Mo4O19,0.8366
mp-1106327,Co4NiSb12,0.18659999999999946
mp-764209,Co4OF11,0.5226999999999999
mp-653887,Co4Pb(CO)16,1.6169
mp-1195181,Co4Se3Cl2O9,2.3949
mp-651279,Co4Si(CO)14,2.5423
mp-653460,Co4Sn(CO)16,2.1266
mp-780537,Co4TeO8,0.5164
mp-690111,Co5(Bi2O5)4,0.4227999999999996
mp-704226,Co5(P2O7)4,0.030799999999999994
mp-1203728,Co5(PO6)2,0.4813000000000001
mp-773511,Co5NiO12,1.1427999999999998
mp-743741,Co5P4(HO2)10,2.7213000000000003
mp-645682,Co5Se4(BrO6)2,2.4476
mp-645708,Co5Se4(ClO6)2,2.4701
mp-1226176,Co5Sn(BO5)2,0.3390000000000004
mp-853132,Co5SnO12,0.9953999999999998
mp-771479,Co5Te3O16,0.2977999999999996
mp-698579,Co5Te4(BrO6)2,2.2494000000000005
mp-687152,Co5Te4(ClO6)2,2.3649000000000004
mp-608243,Co5Te4Cl4O11,2.4393
mp-622901,Co6C13(SO6)2,1.6418
mp-706566,Co6C13(SeO6)2,1.5538
mp-650858,Co6Ge2(CO)19,1.3465
mp-762910,Co6OF11,0.6397999999999999
mp-705156,Co6Te3(ClO6)2,2.2157000000000004
mp-705120,Co6Te5O16,2.1733
mp-24892,Co7(AsO6)2,0.7673000000000005
mp-705595,Co7(SbO6)2,0.6821000000000002
mp-1226214,Co7CuAs4(HO5)4,0.4341999999999999
mp-505026,Co7P6(HO6)4,2.5609
mp-639164,Co7Te4(BrO2)6,2.2401
mp-691140,Co8(BiO4)5,0.17569999999999994
mp-651461,Co8C24(SO7)3,1.4797
mp-699598,Co8Te(AsO8)2,0.7623000000000002
mp-698596,Co9Ru3O16,0.010600000000000165
mp-1203045,Co9Te5(PbO5)6,1.2759
mp-647969,CoAg(CO)4,2.5384
mp-645371,CoAg(NO3)3,2.4274
mp-1213893,CoAg(PO3)3,2.8812
mp-6573,CoAg3(CN)6,3.4249
mp-19178,CoAgO2,1.4273000000000002
mp-541616,CoAgPO4,1.7099000000000002
mp-2715,CoAs2,0.17389999999999972
mp-1198499,CoAs2S4(O2F3)4,2.8248
mp-1203902,CoAs2S6(NF3)6,2.4396
mp-554833,CoAs4F18,3.4338
mp-570037,CoAu2(CN)4,0.9239
mp-1195847,CoB10H19C11,1.7121
mp-1202054,CoB10H23C13,1.5462
mp-1204268,CoB10H31C18O,1.8075
mp-735475,CoB12H28(NO15)2,3.23
mp-1190897,CoB4O7,3.0782
mp-646356,CoBC8(OF2)5,3.1832
mp-569520,CoBH18Br2(N3F2)2,2.8811
mp-1201834,CoBH18N6(ClF2)2,3.0713
mp-769836,CoBO3,1.196
mp-1238930,CoBP(HO3)2,3.2183
mp-1183871,CoBP2HPbO9,3.0663
mp-1203525,CoBi(CO)3,1.4111
mp-1195268,CoBi2SO7,2.2163000000000004
mp-1190466,CoBi6(SO8)2,2.2048
mp-1213921,CoBi6P2(O7F)2,1.8654
mp-1105091,CoBiAsO5,2.4776
mp-557739,CoBiO3,0.8266999999999998
mp-769930,CoBiO4,0.5092000000000003
mp-25659,CoBiPO5,2.8386
mp-30033,CoBr2,0.06319999999999992
mp-1190668,CoBr2(N3O)2,0.4410000000000001
mp-1196610,CoBr3N5,0.4609999999999999
mp-1205182,CoBrN5O4,0.335
mp-1181939,CoBrO,0.415
mp-1203919,CoC4(NCl2)2,0.6038000000000001
mp-1204050,CoC8(NCl2)2,0.09370000000000013
mp-1195784,CoC8(SF3)4,0.4906
mp-1202336,CoCBrN4O3,0.3687
mp-1197836,CoCIN5O4,0.8890999999999999
mp-24854,CoCO3,2.3972
mp-696114,CoCl2,0.00199999999999978
mp-761614,CoCu(PO4)2,0.005099999999999882
mp-620325,CoCu2(BO3)2,0.08979999999999988
mp-504858,CoCu2O3,0.014499999999999956
mp-1226159,CoCu2TeO6,0.09890000000000043
mp-1195492,CoCuCO5,0.006000000000000227
mp-23857,CoCuH18N6Cl5,0.4954000000000001
mp-504711,CoCuO2,0.0862999999999996
mp-505200,CoCuP2O7,0.060300000000000235
mp-556520,CoF2,3.0717
mvc-13941,CoF4,1.6598999999999997
mp-1181805,CoGe(OF)6,0.21660000000000013
mp-24885,CoGeO3,1.4632999999999994
mp-3715,CoGeTe,0.053300000000000125
mp-1182045,CoH10(SeO5)2,2.5432
mp-743970,CoH10C4(N2O3)2,2.8516
mp-542452,CoH12(BrO3)2,2.8243
mp-744192,CoH12(BrO6)2,3.2087000000000003
mp-643575,CoH12(BrO7)2,1.9233
mp-743756,CoH12(ClO3)2,3.0715
mp-743637,CoH12SO10,2.6673
mp-743913,CoH14C10(N4O)2,2.4674
mp-600527,CoH14C3NCl3O2,2.6365
mp-744996,CoH14N5O9,0.7757999999999999
mp-1199552,CoH14SeN5O7,0.8881
mp-1226695,CoH15Br2(N3O)2,2.7796
mp-1227607,CoH15N6(ClO)2,3.1204
mp-744737,CoH15N7ClO5,0.1519999999999999
mp-1204542,CoH15Pd(NCl)5,1.6023
mp-744002,CoH16C3N8O7,2.9404
mp-568314,CoH16C4(NCl2)2,0.8333999999999999
mp-744418,CoH16C4(NO)7,2.4484
mp-1199306,CoH16C4S4(N4Cl)2,0.4404999999999999
mp-744774,CoH16RuN10ClO10,1.1571
mp-735481,CoH17C(NO)8,0.9390000000000001
mp-745061,CoH17S2N5ClO4,0.4716
mp-1198748,CoH18Br2N6ClO3,2.8696
mp-600278,CoH18C4N7O8,2.7884
mp-744629,CoH18C4N8(ClO)4,2.763
mp-744689,CoH18C6SO10,1.4335
mp-1204043,CoH18CN6ClO3,2.2251
mp-1201414,CoH18N6(ClO)3,3.1521
mp-1196395,CoH18S2Br(N3O2)2,0.4923
mp-745100,CoH19S3N5O11,0.7462
mp-1203827,CoH2(CO2)2,2.5845
mp-1200270,CoH20C4SO10,3.3648
mp-1197411,CoH20PtC4(NO3)4,3.0269000000000004
mp-542659,CoH20S2(NO7)2,3.2756
mp-735513,CoH20S2N6ClO4,2.5831
mp-603423,CoH21C2N6Cl2O5,0.6548
mp-746670,CoH22C3(N3O4)2,3.1476
mp-42392,CoH22N7(ClO2)4,0.9142
mp-735625,CoH22S2N5O9,0.2652000000000001
mp-1198847,CoH24C2S2(N3O7)2,2.6923
mp-1195446,CoH24C6Br2(N2O3)2,2.7358
mp-1204815,CoH2CO3,2.0797
mp-1192030,CoH2Cl2O,2.5671
mp-1196122,CoH2PbN3O8,2.4508
mp-643547,CoH2SO5,2.8471
mp-541780,CoH2SeO4,2.5756
mp-25484,CoH2SeO5,2.4837
mp-570847,CoH3(CN)6,4.1766000000000005
mp-1182596,CoH32C8S4(NO5)2,2.4572000000000003
mp-1214728,CoH3S2N5O6,0.3640999999999997
mp-25492,CoH4(CO3)2,2.4737
mp-1214998,CoH40C10Br2(N2O)10,3.2158999999999995
mp-709540,CoH4C4(NCl2)2,0.07030000000000003
mp-1226354,CoH4C4(NO3)2,0.9204
mp-541300,CoH4SeO5,2.7463
mp-1190433,CoH5CN(ClO)2,2.7298
mp-776636,CoH5SeClO5,2.9132
mp-548747,CoH6(CO3)2,2.6252
mp-643913,CoH6(NCl)2,0.23519999999999985
mp-744574,CoH6(SeO4)2,2.9483
mp-743619,CoH6C2S2N2O3,2.2358
mp-1195522,CoH7C3NO6,2.8129
mp-25494,CoH8(BrO2)2,2.9713000000000003
mp-1204386,CoH8(CO4)2,2.3131
mp-772431,CoH8(CO5)2,0.5706000000000002
mp-1238424,CoH8(ClO2)2,1.8432
mp-25486,CoH8(IO5)2,3.0703
mp-1200994,CoH8C2N4(ClO2)2,0.3952
mp-1226417,CoH8S2(NO2)4,0.9996
mp-744576,CoH8SO8,3.2609
mp-1181555,CoH8Se2(ClO4)2,0.7568
mp-24037,CoH9(CN2)3,2.8895
mp-745118,CoH9(NO)6,2.695
mp-1200667,CoH9C3N7O2,2.2775
mp-743542,CoH9C4NO6,2.7446
mp-600510,CoH9C6(S2O)3,2.4311000000000003
mp-600494,CoHCO3,0.6279999999999999
mp-1022803,CoHCO4,0.16670000000000007
mp-744756,CoHRu(CO)6,2.2321
mp-735485,CoHRu3(CO)13,2.0139
mp-540934,CoHgC4(SN)4,0.7969
mp-12422,CoHgC4(SeN)4,0.7733
mp-1197380,CoHgH18Br4N6Cl,2.2268
mp-617167,CoI(NO)2,1.5959
mp-1204403,CoI2(N3O)2,0.8394000000000001
mp-1105747,CoMo4O15,0.1174
mp-745098,CoMo8H36C8(NO16)2,2.5499
mp-1204398,CoMoH24N6ClO7,3.3360000000000003
mp-866972,CoMoH2SeO7,2.3374
mp-19644,CoMoO4,0.3567999999999998
mp-1194075,CoN12,0.3037000000000001
mp-1204466,CoN3Cl5,0.16020000000000012
mp-1182276,CoN4Cl2O3,0.3553
mp-1201305,CoN5Cl3,0.3861
mp-1201776,CoN5ClO4,0.2318
mp-1197703,CoN5O9,0.05969999999999985
mp-1191322,CoN6(ClO)2,1.0254
mp-772570,CoNCl4O3,0.4651999999999998
mp-549033,CoNi(PO3)4,3.0822
mp-1226305,CoNi2(PO4)2,2.6856000000000004
mp-744562,CoNiH12C4(N2O3)2,2.7587
mp-542386,CoNiH24(SO10)2,3.2189
mp-1178424,CoNiO3,0.8815000000000004
mp-1229196,CoNiP4(H8O5)4,3.1616
mp-24864,CoO,0.5880000000000001
mp-1116784,CoO2,0.5127
mp-1079523,CoO4,0.055099999999999934
mp-1237503,CoP(H4O3)3,0.16260000000000008
mp-25477,CoP2(H4O5)2,3.259
mp-1203644,CoP2(H8O5)2,1.974
mp-1196775,CoP2H10(NO4)2,2.5558
mp-1182407,CoP2H15N5O8,0.8098999999999998
mp-744527,CoP2H17N4O9,1.1817
mp-743593,CoP2H18(NF2)6,2.6244
mp-746679,CoP2H24C8S4NClO4,2.0123
mp-541467,CoP2PbO7,2.9639
mp-761749,CoP2WO8,2.0195
mp-604979,CoP3H12NO7,3.2087
mp-1196080,CoP3H15C3NO12,0.4942
mp-744226,CoP3H16N4O11,0.9217
mp-1203987,CoP3H33C11I,1.8674
mp-863286,CoP3NO9,1.2072
mp-743783,CoP4(H5O8)2,3.2039
mp-1203442,CoP4F12,1.255
mp-25495,CoP4H16(NO8)2,3.3299000000000003
mp-1200623,CoP4O11,3.1387
mp-1182419,CoP6(N2O11)2,0.032299999999999995
mp-1182136,CoPH14N4O7,0.6347999999999998
mp-762564,CoPH16NO10,3.2407
mp-775736,CoPH21N5O7,0.6912
mp-745087,CoPH3O4,2.8362
mp-1182617,CoPH3O5,3.0368
mp-744605,CoPH4ClO3,3.0437
mp-743840,CoPH6NO5,2.8378999999999994
mp-772257,CoPHO5,0.5148000000000001
mp-1214243,CoPNO10,0.7217
mp-850481,CoPO4,1.1587
mp-10368,CoPSe,0.6400999999999994
mp-24859,CoPb2WO6,1.780200000000001
mp-1215057,CoPdN5Cl5O,0.3825
mp-1214966,CoPtBr4N5Cl,0.3828
mp-556810,CoPtF6,1.8465
mp-765839,CoRe2(H2O3)4,2.9872
mp-1226126,CoRe2(MoS4)2,0.15030000000000054
mp-1199610,CoS2N5O9,0.4844
mp-1202862,CoS3N3O2,1.5258
mp-1198398,CoSO10,0.12740000000000018
mp-19379,CoSO4,2.7686
mp-1213843,CoSO8,0.03790000000000005
mp-648390,CoSb(CO)3,1.6035
mp-561493,CoSb2Br2O3,1.2096
mp-1042609,CoSb2O7,0.7201
mp-629319,CoSb2S2(OF3)4,2.9027000000000003
mp-775217,CoSb3(PO4)6,1.616
mp-1195576,CoSb3XeF23,0.6382000000000001
mp-1183681,CoSbO3,0.1576000000000004
mp-18973,CoSe2O5,2.3763
mp-1213819,CoSeClO6,0.1338999999999999
mp-1198343,CoSeO3,2.3894
mp-504678,CoSeO4,1.6888999999999998
mp-704362,CoSiC4Cl3O4,3.9118
mp-699575,CoSiO3,2.6041
mp-633897,CoSiO4,0.9037
mp-863848,CoSn(PO4)2,1.8506
mp-1105112,CoSn2(OF)6,0.5126
mp-601403,CoSn2H12(OF)6,2.5957
mp-761975,CoSn3(PO4)4,0.7442000000000002
mp-1215120,CoSn3F6,0.09250000000000023
mp-561708,CoSnC4Cl3O4,3.0334000000000003
mp-561501,CoSnF6,2.5882
mp-1205069,CoSnN6Cl5,0.9673999999999998
mp-761574,CoSnO3,1.1886
mp-1078906,CoTe(PbO3)2,1.7553
mp-781595,CoTe2O5,2.5023000000000004
mp-1042498,CoTe2O7,0.5096999999999998
mp-1198962,CoTe6O13,0.0002999999999993008
mp-560750,CoTeMoO6,2.5156000000000005
mp-19113,CoTeO3,2.1368
mp-1226075,CoTeO4,0.4421
mp-1042536,CoW2O7,2.2233
mp-19092,CoWO4,2.2831
mp-557056,Cr(AgO2)2,1.3899
mp-567148,Cr(B3H8)2,0.9962
mp-698567,Cr(Bi7O12)2,2.0180000000000002
mp-1182495,Cr(C5O2)2,1.0018999999999998
mp-1198466,Cr(C7O2)3,0.15900000000000006
mp-647812,Cr(CO)6,3.4576
mp-1079620,Cr(ClO)2,2.42
mp-1104833,Cr(ClO2)2,1.0235
mp-1181814,Cr(ClO2)3,0.1475
mp-765852,Cr(CoO3)2,0.33919999999999995
mvc-8359,Cr(GeO3)2,0.6371
mp-1181843,Cr(NO2)2,0.5902999999999998
mp-606382,Cr(OF)2,2.6878
mp-1226389,Cr(OF)3,1.2047
mp-772684,Cr(PO3)2,2.8477
mp-566845,Cr(PO3)3,3.3268
mp-540424,Cr(PO3)4,0.2935
mp-705019,Cr(PO3)5,0.3783
mp-697815,Cr(PO4)2,0.3393