task_id,pretty_formula,band_gap
mp-1221822,Mn3Co3(TeO6)2,0.9559000000000002
mp-771723,Mn3Co5O16,0.7014999999999998
mp-775395,Mn3Cr(PO4)4,0.18399999999999966
mp-772450,Mn3Cr(PO4)6,0.06729999999999993
mp-19561,Mn3Cr2(SiO4)3,2.8887
mp-776047,Mn3Cr2Ni(PO4)6,0.02090000000000014
mp-775041,Mn3Cr2Sb3O16,0.3121999999999998
mp-1176479,Mn3Cr2Sn(PO4)6,0.021400000000000308
mp-773319,Mn3Cr2Te3O16,0.21930000000000005
mp-780598,Mn3Cr3(SbO8)2,0.15660000000000007
mp-771095,Mn3Cr3(SnO8)2,0.8395000000000001
mp-778921,Mn3Cr3(WO8)2,0.484
mp-1176490,Mn3CrFe2(PO4)6,0.08420000000000005
mp-773120,Mn3CrO8,0.5666000000000002
mp-1221994,Mn3Cu(Te2O5)4,0.7259000000000002
mp-765801,Mn3F10,0.03730000000000011
mp-765332,Mn3F8,0.9161
mp-767569,Mn3Fe(PO4)4,0.6661000000000001
mp-1201980,Mn3Fe2(GeO4)3,2.0572
mp-19626,Mn3Fe2(SiO4)3,2.3633
mp-771758,Mn3Fe2Sb3O16,0.37849999999999984
mp-1176467,Mn3Fe2Sn(PO4)6,0.04649999999999999
mp-1222219,Mn3Fe3(PO4)4,3.0203999999999995
mp-775968,Mn3Fe3(TeO8)2,0.3250000000000002
mp-761939,Mn3Fe5O12,0.4794999999999998
mp-1211638,Mn3Ga2(GeO4)3,1.8613
mp-762167,Mn3Ga4P6(H2O5)6,3.5464
mp-743588,Mn3H24(O3F2)4,0.9821
mp-25764,Mn3H2Se3O10,2.7170999999999994
mp-1212144,Mn3H6(SO6)2,2.9606000000000003
mp-1221839,Mn3In2Sb3O14,0.2346000000000004
mp-744919,Mn3Mo2H34C22N16O5,1.0399
mp-775197,Mn3Nb(PO4)4,0.12919999999999998
mp-771853,Mn3Nb2Cr3O16,0.7195
mvc-12227,Mn3Nb2O9,0.4441999999999999
mp-567090,Mn3Nb2ZnO9,1.9058
mp-615489,Mn3Nb6O11,0.23380000000000045
mp-1221970,Mn3Nb8FeO24,2.424
mp-761628,Mn3Ni2P6WO24,0.04520000000000035
mp-776651,Mn3NiO4,0.09499999999999977
mp-1176568,Mn3NiO8,0.5468
mp-1176570,Mn3NiSn2(PO4)6,0.00890000000000013
mp-763795,Mn3O2F5,0.9757
mp-18759,Mn3O4,0.6925999999999997
mp-763934,Mn3OF5,0.8089999999999999
mp-763856,Mn3OF6,0.4953
mp-850899,Mn3OF8,0.4521000000000001
mp-1202942,Mn3P3PbO12,0.3571
mp-1204413,Mn3P4H12(NO8)2,3.715
mp-1176455,Mn3P6WO24,0.3829999999999999
mp-1193915,Mn3Sb2(IO)4,2.0941
mp-1196009,Mn3Sb5(IO3)3,2.4205
mp-505203,Mn3Se3O10,0.05790000000000006
mp-565600,Mn3Si(O2F)2,2.7393
mp-861566,Mn3Si3O10,1.2803999999999998
mp-775053,Mn3Sn(PO4)4,0.13529999999999998
mp-778517,Mn3Sn(PO4)6,0.0257
mp-771670,Mn3SnO8,1.3636
mp-18795,Mn3TeO6,0.7581999999999995
mp-1192249,Mn3TeP2Pb3O14,2.4538
mp-771799,Mn3V(PO4)4,0.07960000000000013
mp-770130,Mn3V2Co3O16,0.16210000000000013
mp-773144,Mn3V2Cr3O16,0.7056
mp-772479,Mn3V2O10,0.33929999999999993
mp-1221916,Mn3V2O8,1.8164
mp-1194640,Mn3V3(AgO6)2,0.053900000000000066
mp-773550,Mn3V3(TeO8)2,0.7122999999999999
mp-567051,Mn3V6(FeO6)4,1.4562000000000002
mp-1176676,Mn3VCu2(PO4)6,0.02540000000000009
mp-771584,Mn3VO8,0.7397
mp-764734,Mn3VSb2(PO4)6,0.023499999999999854
mp-861181,Mn3VSn2(PO4)6,0.0057999999999998044
mp-782657,Mn3VTe2(PO4)6,0.4851000000000001
mp-19158,Mn3WO6,2.0382
mp-1222014,Mn3Zn(IO3)8,2.5783
mp-1043615,Mn3Zn(P2O7)2,2.6424000000000003
mvc-15960,Mn3Zn2O8,1.2662000000000002
mp-1041525,Mn3Zn3(AsO4)4,1.3164
mp-1221933,Mn3Zn9(PO4)8,2.7703
mp-1193234,Mn3ZnO10,1.24
mp-1192094,Mn3ZnO7,1.4265
mp-1047803,Mn3ZnP3O13,0.14610000000000012
mp-779338,Mn4(P2O7)3,0.24529999999999985
mvc-12038,Mn4(SiO3)5,0.3882999999999997
mp-25772,Mn4Be3Ge3SO12,2.4229
mp-25766,Mn4Be3Ge3SeO12,2.2723000000000004
mp-19314,Mn4Be3Si3SO12,3.1083
mp-25024,Mn4Be3Si3SeO12,3.1871
mp-25022,Mn4Be3Si3TeO12,3.1768000000000005
mp-565428,Mn4Bi3NO15,0.8880999999999997
mp-704101,Mn4C15S4O15,1.9026
mp-1221857,Mn4FeO5,0.3681000000000001
mp-1222084,Mn4H2C8O17,2.2347
mp-1210626,Mn4NO8,0.4678
mp-640040,Mn4Nb2O9,1.8273
mp-29906,Mn4Nb7Ge8,0.010699999999999932
mp-764259,Mn4OF6,1.9792
mp-767164,Mn4OF8,0.7287
mp-770499,Mn4P2O9,2.1851000000000003
mp-697863,Mn4P4O13,3.6706
mp-540414,Mn4P7O24,0.02880000000000005
mp-744991,Mn4Si3AsHO13,2.2148000000000003
mp-743890,Mn4Si4SnB2(HO9)2,2.7422
mp-568121,Mn4Si7,0.7785999999999991
mp-19591,Mn4SiO7,0.8957000000000002
mp-1193463,Mn4SiTeBr2O7,2.7025
mp-1193890,Mn4SiTeCl2O7,2.4763
mp-764420,Mn4TeO8,0.20089999999999986
mp-1210812,Mn4Zn3H10(CO8)2,2.018
mp-1198289,Mn5(AsO5)4,0.2768999999999999
mp-1204415,Mn5(AsO6)2,0.03550000000000031
mp-1205143,Mn5(AsO8)2,0.0041999999999999815
mp-1222437,Mn5(FeO3)4,0.6869000000000001
mp-861713,Mn5(OF3)2,0.9225
mp-1197349,Mn5(PO5)4,0.3336000000000001
mp-776755,Mn5(SeO3)8,0.6155
mp-1198989,Mn5(SiO5)2,0.9146000000000004
mp-1046509,Mn5(TeO6)3,0.1575000000000002
mp-1204184,Mn5As4(HO2)10,1.7085
mp-771680,Mn5Co3O16,0.9118000000000002
mp-771458,Mn5CoO12,1.3392999999999995
mp-771632,Mn5Cr2O12,0.2290000000000001
mp-771553,Mn5Cr3O16,0.5962000000000001
mp-1222248,Mn5Cr4O12,0.14359999999999973
mp-1176453,Mn5CrO12,0.7755000000000001
mp-1221988,Mn5CrO8,0.40290000000000026
mp-1222156,Mn5Cu(PO4)4,0.06519999999999992
mp-1224824,Mn5Cu(Te2O5)6,0.6008
mp-1222077,Mn5Cu3(Te2O5)8,0.35489999999999977
mp-1221544,Mn5Ni(BO5)2,0.0181
mp-773540,Mn5Ni(PO4)6,0.16559999999999994
mp-773303,Mn5NiO12,1.0809000000000002
mp-18922,Mn5O8,0.5512999999999999
mp-766870,Mn5O9F,0.6072
mp-1210668,Mn5P3ClO12,3.0678
mp-1195975,Mn5P4(H3O10)2,0.7411000000000003
mp-744430,Mn5P4(HO2)10,3.1874
mp-772335,Mn5P6WO24,0.058300000000000025
mp-579561,Mn5Pb(SO4)6,4.1636000000000015
mp-767122,Mn5SbO12,0.042100000000000026
mp-771938,Mn5SnO12,1.4668
mp-1210639,Mn5V2(HO3)4,1.7199
mp-631631,Mn5V2Pb3O16,0.5634000000000001
mp-1176451,Mn5VO12,1.0718
mp-1193782,Mn5VO8,0.4582999999999999
mp-1046628,Mn5Zn4(TeO6)3,0.2265000000000001
mp-774350,Mn6OF11,1.1909
mp-861291,Mn6P4H2O17,2.8921
mp-1211172,Mn6Te5O16,1.9856
mp-744654,Mn6VSi5HO19,1.8621
mp-774014,Mn6Zn3O16,0.03950000000000009
mp-861565,Mn7(OF3)3,0.5702
mp-774029,Mn7Cr12O48,0.2509
mp-769632,Mn7CrO16,0.9527
mp-868279,Mn7F16,1.4003
mp-653429,Mn7FeCl3O10,0.9382
mp-1172871,Mn7GeO12,0.4826000000000002
mp-744764,Mn7P6(HO6)4,3.2095
mp-776832,Mn7Sb(PO4)12,0.0034000000000000696
mp-19650,Mn7SiO12,0.39070000000000027
mp-778765,Mn7Sn(PO4)12,0.001400000000000068
mp-1211131,Mn8(Al9Zn)3,0.008000000000000007
mp-25773,Mn8Cl3O10,0.3512999999999997
mp-1003403,Mn8HO16,0.28280000000000016
mp-1221848,Mn8NO16,0.7108000000000001
mp-1221945,Mn8O17,0.30900000000000016
mp-863883,Mn8PbO16,0.10519999999999996
mp-1180962,Mn8Si6O25,0.007700000000000041
mp-769622,Mn9(FeO6)4,0.7598999999999998
mp-29905,Mn9(NbGe4)2,0.021100000000000563
mp-705426,Mn9(P2O7)8,0.4626
mp-704227,Mn9(PO4)8,0.2504
mp-1181034,Mn9(Si2O9)2,0.3639000000000001
mp-744746,Mn9Al2Si8(HO4)8,2.8006
mp-1221930,Mn9Al8Fe3(SiO4)12,3.5905000000000005
mp-765824,Mn9FeO10,0.1482000000000001
mp-1221877,Mn9Zn3O16,0.6456
mp-850230,Mn9Zn6Si4(SbO14)2,1.0069
mp-1198769,MnAg(PO3)3,3.0005000000000006
mp-1180483,MnAg4(PO4)6,0.05220000000000002
mp-6637,MnAg4(SbS3)2,0.8048000000000002
mp-1212305,MnAg4P6(HO3)6,0.0074000000000000185
mp-996995,MnAgO2,0.2894999999999999
mp-609092,MnAgO4,0.7078000000000001
mp-1193494,MnAgPO4,1.5816999999999997
mp-774150,MnAl2O4,2.6578
mp-1238482,MnAl2P2(H5O4)4,1.5003
mp-541151,MnAl2P2(HO)18,3.9537
mp-1221856,MnAl2Sb2(PO4)6,2.9437999999999995
mp-1180335,MnAl6Si4O19,0.5202999999999998
mp-1221830,MnAlB2(PbO4)2,1.2679
mp-1210873,MnAlBiO5,0.14060000000000006
mvc-14725,MnAlF5,4.634
mp-774250,MnAlO3,1.1731999999999996
mp-763195,MnAlP2(HO)15,3.7912
mp-1211169,MnAlPH4O7,3.3452
mp-1210817,MnAlSiO5,1.6666999999999996
mp-557038,MnAs2F12,3.9706
mp-1195801,MnAs2H16(S2N)4,0.9687
mp-1042875,MnAs2O7,0.5503
mp-562665,MnAs2S2(OF3)4,3.0244
mp-622136,MnAs2S4(NF6)4,3.4329
mp-1199843,MnAs3(PbO3)3,0.7035
mp-25557,MnAsH2O5,1.4118
mp-1180595,MnAsH3O5,2.1173
mp-566706,MnAsO4,1.0584
mp-1095782,MnAsRu2,0.13929999999999998
mp-1195203,MnB2(H7N)2,2.2895
mp-556883,MnB2F8,6.4852
mp-1195307,MnB2H17N3,1.9057
mp-1195729,MnB2P3H10N2ClO13,4.3988999999999985
mp-1203789,MnB4H24(C2N)2,1.8806
mp-566848,MnB4O7,5.0303
mp-1200751,MnBP(HO3)2,4.1507000000000005
mp-25698,MnBPbO4,0.9108999999999998
mp-1195414,MnBe2Fe2(P2O11)2,0.02200000000000002
mp-1097375,MnBe2Os,0.027099999999999902
mp-1096085,MnBeCo2,0.032899999999999714
mp-1197976,MnBePO5,0.7541
mp-1222044,MnBi12W2(ClO8)3,0.5562000000000005
mp-1195460,MnBi2(IO)8,0.8240000000000001
mp-1095372,MnBi4S7,0.8815999999999997
mp-565979,MnBiAsO5,2.3819999999999997
mp-1105271,MnBiO3,0.29410000000000025
mp-569868,MnBiPO5,2.9610000000000003
mp-557805,MnBiS2Br,0.7536000000000005
mp-558130,MnBiS2Cl,0.8539999999999992
mp-569109,MnBiSe2I,0.7160000000000002
mp-28306,MnBr2,1.5958
mp-1189676,MnC2S2(NO6)2,0.2906999999999997
mp-683660,MnC4BrO4,2.5559000000000003
mp-1196585,MnC4ClO4,2.6962
mp-653788,MnC4IO4,2.353
mp-617165,MnC4NO5,2.3767
mp-566804,MnC5(O2F)2,2.5793
mp-631350,MnC5BrO5,2.7622
mp-623924,MnC5ClO5,2.9387
mp-1192277,MnC5IO5,2.6009
mp-1213563,MnC5O8,0.2996000000000001
mp-616425,MnC6S2NO5F6,3.0452
mp-1180463,MnC8(Br2N)2,0.2147000000000001
mp-1180720,MnC8(NCl2)2,0.26759999999999984
mp-12335,MnCN2,0.2801
mp-18814,MnCO3,3.4614000000000003
mp-769958,MnCSO7,0.05690000000000006
mp-1221886,MnCd(GaSe2)4,1.0438999999999998
mp-1221703,MnCd2S3,0.5609000000000002
mp-1221664,MnCd2Te3,0.39469999999999983
mp-1221792,MnCd2TeO6,0.3660000000000001
mp-1221667,MnCd3Te4,0.4854000000000003
mp-1221772,MnCd4S5,0.6069000000000002
mp-761295,MnCd6O8,0.1735
mp-1096109,MnCdAu2,0.4085000000000001
mp-566850,MnCdF5,0.745
mp-1095826,MnCdPd2,0.4181999999999997
mp-1096673,MnCdRh2,0.020700000000000163
mp-1221643,MnCdS2,0.5470000000000002
mp-1221650,MnCdTe2,0.4832000000000001
mp-28233,MnCl2,1.7923
mp-560357,MnClO3,2.0584
mp-554444,MnCo(BiO3)2,0.8408999999999995
mp-775270,MnCo(PO4)2,0.6115999999999999
mp-1221785,MnCo2TeO6,0.9794
mp-768069,MnCo3O8,1.1944
mp-1176471,MnCo9O10,1.1942000000000004
mp-1221788,MnCoB2O5,2.1963
mp-1221868,MnCoCu4(SnS4)2,0.0026000000000001573
mp-21286,MnCoGe,0.005700000000000038
mp-510728,MnCoH18(CN2)6,0.13129999999999994
mp-24844,MnCoO3,1.0431000000000004
mp-771797,MnCoO4,1.2788
mp-775016,MnCr(PO4)2,0.7367000000000001
mp-1221710,MnCr2(SeS)2,0.3127000000000004
mp-541022,MnCr2O4,2.3724000000000003
mp-775116,MnCr3(PO4)4,1.0877000000000003
mp-764180,MnCr3O8,0.6559999999999999
mp-1221813,MnCr4CdS8,0.6288
mp-1221753,MnCr4CdSe8,0.488
mp-1221841,MnCrCoO4,0.16280000000000028
mp-555156,MnCrF5,2.2668
mp-1221691,MnCrInS4,0.2816000000000001
mp-769937,MnCrO4,1.0087000000000002
mp-1222244,MnCu(CO3)4,0.3737
mp-1221686,MnCu(SeO3)2,0.17410000000000014
mp-505342,MnCu(Te2O5)2,0.6566000000000001
mp-20474,MnCu2GeS4,0.25459999999999994
mp-12023,MnCu2SiS4,0.6646000000000001
mp-1221764,MnCu3(SeO3)4,0.041100000000000136
mp-744703,MnCuH10Se2(ClO5)2,0.3223
mp-510589,MnCuO2,0.7095000000000002
mp-1097093,MnCuRh2,0.02519999999999989
mp-556560,MnF3,0.3873
mp-561659,MnF4,1.3254
mp-764402,MnFe(PO4)2,0.7685000000000002
mp-1221992,MnFe2(PO4)3,1.022
mp-1191558,MnFe2(PO9)2,0.24850000000000005
mp-1210836,MnFe2Ag2(PO4)3,0.2582
mp-1201249,MnFe2Pb8F24,2.1633
mp-743566,MnFe2Sb2(PO4)6,2.6785
mp-1221875,MnFe3(BiO3)4,0.9268999999999998
mp-767822,MnFe3(PO4)4,1.2713
mp-778218,MnFe3Sn2(PO4)6,0.07310000000000016
mp-1222178,MnFe4(BiO3)5,1.0214
mp-1221795,MnFe4O5,0.5309999999999997
mp-1221814,MnFe5O8,0.09920000000000018
mp-767817,MnFe7(PO4)8,1.4408999999999998
mp-1176443,MnFeBO4,0.9076999999999996
mp-1221879,MnFeBiO5,0.2931000000000008
mp-637223,MnFeC5N6O,1.3475
mp-1176578,MnFeCo(PO4)3,0.5893999999999999
mp-1181416,MnFeH4NF6,0.013899999999999968
mp-541122,MnFeH4O2F5,1.9458
mp-1201036,MnFeNF6,1.8884
mp-1221897,MnFeNiO4,0.04190000000000005
mp-691168,MnFeO3,0.8193000000000001
mp-1221755,MnFeSiO4,2.3284
mp-1200042,MnGa2P3H4NO14,0.7157999999999999
mp-1221831,MnGaFeO4,1.5456000000000003
mp-542928,MnGaH4O2F5,3.4119
mp-698410,MnGe4H24C8(S5N)2,1.4138000000000002
mp-20692,MnGeN2,0.21260000000000007
mp-643577,MnGeO3,1.3076
mp-745016,MnH(CO)4,2.794
mp-600507,MnH10CNCl3O2,3.8341
mp-566172,MnH10S2(NO2)4,4.3533
mp-541186,MnH10SO9,3.8814
mp-542221,MnH10SeO9,2.6067
mp-566740,MnH11C5NO6,3.5460000000000003
mp-569124,MnH12C2(NCl2)2,1.5219
mp-743974,MnH12C2NCl3O2,3.9672
mp-1212339,MnH12C4(N9O2)2,3.4249
mp-703684,MnH12N2(Cl2O)2,3.4053
mp-849529,MnH12S2(NO5)2,4.2456
mp-600501,MnH14C3NCl3O2,4.0385
mp-24824,MnH16C4(Br2N)2,2.7217
mp-568043,MnH16C4(NCl2)2,1.7388
mp-743971,MnH16C4N(OF2)2,2.2687
mp-1199490,MnH16C4S4(N4Cl)2,1.6345
mp-735514,MnH18C4N8(ClO)4,3.1973
mp-738687,MnH19C6I3N2,2.427
mp-566598,MnH2(CO2)2,3.4661
mp-25566,MnH2(SO4)2,4.6845
mp-743568,MnH2(SeO4)2,2.1118
mp-1202611,MnH20C22(N5O3)2,1.4986000000000002
mp-1201200,MnH20C2S2(NO2)6,4.5125
mp-557785,MnH21C7S3N,1.4577999999999998
mp-1192289,MnH2Cl2O,3.9492
mp-505181,MnH2SO4,4.1165
mp-643427,MnH2SO5,3.7724
mp-643412,MnH2SeO5,2.0157
mp-1205136,MnH30C6(Se2N3)2,1.1173
mp-1225968,MnH30C6Se5N6,0.8150000000000001
mp-744693,MnH30C8(N13O9)2,1.6095
mp-1238486,MnH3C5NO6,0.10470000000000003
mp-1211095,MnH4(C2O3)2,2.1794
mp-25540,MnH4(CO3)2,2.3683
mp-540676,MnH4(ClO)2,4.3746
mp-772667,MnH4(OF2)2,2.5561000000000003
mp-772662,MnH4(SO5)2,0.6868
mp-743835,MnH4(SO6)2,0.1475000000000002
mp-1200531,MnH44C12N8(ClO5)2,4.0743
mp-1210843,MnH4NF3,2.8921
mp-541798,MnH4S2O9,4.796
mp-744256,MnH5SO7,0.6941
mp-25769,MnH6(CO3)2,3.4977
mp-1221677,MnH6(NCl)2,1.5349000000000002
mp-735521,MnH6(OF)3,1.5092
mp-779879,MnH6(S2O9)2,0.4319000000000002
mp-25770,MnH6(SO4)4,5.099500000000001
mp-765484,MnH6SO6,4.6156
mp-1204295,MnH6SO7,3.9912
mp-1238333,MnH7C3NO6,2.3501000000000003
mp-1211657,MnH7C4N3O7,2.7266
mp-540545,MnH8(BrO2)2,3.4753
mp-25706,MnH8(ClO2)2,3.8803
mp-696616,MnH8(N2Cl)2,1.9
mp-765326,MnH8(NF3)2,3.1861
mp-744148,MnH8(NO5)2,2.8791
mp-779401,MnH8(SO6)2,0.4086
mp-567451,MnH8C2NCl3,1.6327000000000005
mp-767297,MnH8C2S2(NO2)2,3.9825
mp-1203692,MnH8SN2O4F3,2.4704
mp-656241,MnH9C4NO6,3.3661000000000003
mp-743948,MnH9CNCl3O2,2.2377
mp-746778,MnHC3O4,2.7733
mp-645044,MnHg2C6(SN)6,0.0908
mp-541914,MnHgC4(SN)4,1.6619000000000002
mp-543031,MnHgC4(SeN)4,1.7339
mp-1096028,MnHgPd2,0.3811000000000005
mp-1188474,MnIn2NiO6,1.3835999999999995
mp-35162,MnIn2O4,1.2622999999999998
mp-28912,MnInBr3,1.6239
mp-1099572,MnInF3,2.4640000000000004
mp-651406,MnInFe(CO)9,2.1453
mp-1193141,MnInO3,0.02150000000000052
mp-2728,MnIr,0.02149999999999963
mp-1222086,MnMoH2SeO7,1.9453
mp-19455,MnMoO4,1.4039999999999997
mp-1202287,MnN2F5,0.5679999999999998
mp-1190482,MnNCl3,0.3774000000000002
mp-775045,MnNb(PO4)2,0.045800000000000285
mp-1095969,MnNb2Cr,0.14970000000000014
mp-640524,MnNb2O6,2.5349000000000004
mp-1097543,MnNb2Tc,0.5619000000000001
mp-620294,MnNb2Zn2O8,2.5005
mvc-15048,MnNb2ZnO8,1.1857
mp-1221858,MnNb4FeO12,2.3899000000000004
mp-1176444,MnNb4O12,1.5081
mp-1221926,MnNb8(FeO8)3,2.3025
mp-1221895,MnNbH8(OF)5,2.1646
mp-567125,MnNi(BiO3)2,0.5164999999999997
mp-772336,MnNi(PO4)2,0.2852999999999999
mp-763867,MnNi3O4,0.9829999999999997
mp-1221343,MnNi7O8,1.0324
mp-19331,MnNiO3,1.358
mp-1221356,MnNiP2O7,2.8225
mp-764025,MnOF,0.15989999999999993
mp-767325,MnOF2,0.3771
mp-1182381,MnP(HO)7,3.9786
mp-745106,MnP2(H4O5)2,3.9748
mp-1202814,MnP2(HO4)2,0.3449
mp-1199960,MnP2H12(CO2)4,4.5476
mp-865509,MnP2H2O7,4.368
mp-743961,MnP2H36C12N6(ClO)2,4.2192
mp-743651,MnP2H4O5,0.43200000000000005
mp-1210970,MnP2H6O5,4.1770999999999985
mp-745148,MnP2HO7,1.6707999999999998
mp-1210948,MnP2HO8,1.3064
mp-1200077,MnP2O5,0.30199999999999994
mp-771660,MnP2O7,0.8066
mp-561884,MnP2PbO7,3.9553
mp-777697,MnP2WO8,2.2835
mp-1198149,MnP3C(NO7)2,0.4949
mp-743546,MnP3H10C3NO9,4.7284
mp-578744,MnP3H12NO7,4.3019
mp-1181262,MnP4(NO6)2,0.19649999999999995
mp-542425,MnP4H16(NO8)2,4.0598
mp-567081,MnP4O11,4.5053
mp-777056,MnP6(WO8)3,1.1344000000000003
mp-1181254,MnPCO4,0.5995000000000001
mp-744458,MnPH2(CO)4,3.1559
mp-764635,MnPH2CO6,2.8688
mp-25046,MnPH2O5,1.4574000000000005
mp-743541,MnPH5CO4,3.3454
mp-743841,MnPH6NO5,3.0639000000000003
mp-775096,MnPHO5,0.8400999999999998
mp-1210723,MnPO3,0.015000000000000124
mp-777460,MnPO4,0.6794000000000002
mp-25550,MnPO4F,0.002800000000000025
mp-1212571,MnPO7,0.5723
mp-8613,MnPS3,0.15249999999999986
mp-1210715,MnPb(SO4)2,4.4144000000000005
mp-1194656,MnPb2WO6,2.2459
mp-1097226,MnPdAu2,0.5855999999999999
mp-557668,MnPtF6,1.8679
mp-1221941,MnRe(CO)10,2.537
mp-1097430,MnRu2W,0.25760000000000005
mp-868706,MnS2(NO7)2,0.21440000000000006
mp-1212181,MnSN2O4F3,0.5171
mp-566093,MnSO3,3.8276
mp-25006,MnSO4,3.6106000000000007
mp-1198822,MnSO6,1.3866000000000005
mp-1211211,MnSO8,0.1150000000000002
mp-1194472,MnSb2(OF4)2,0.0373
mp-555052,MnSb2F12,3.3118
mp-687227,MnSb2Pb5O11,1.1326999999999998
mp-1195126,MnSb3XeF23,0.7189000000000001
mp-683891,MnSb6(Pb2S7)2,0.4470000000000001
mp-554061,MnSbS2Br,0.6707999999999998
mp-555844,MnSbS2Cl,0.8681999999999999
mp-567478,MnSbSe2Br,0.621
mp-570268,MnSbSe2I,0.532
mp-19706,MnSe2O5,2.4338
mp-1205179,MnSe3O8,0.9746
mp-1202364,MnSeO3,3.0994
mp-565794,MnSeO4,1.4986
mp-1210667,MnSi(AgTe2)2,0.2930000000000001
mp-19351,MnSi2O5,3.4858
mp-699587,MnSi6Pb8O21,3.2441000000000004
mp-3606,MnSiN2,0.5245999999999995
mp-19528,MnSiO3,2.6058
mvc-12177,MnSiO4,0.06150000000000011
mp-775753,MnSn(PO4)2,1.5478
mp-771800,MnSn3(PO4)4,0.7295999999999996
mp-1213086,MnSn3F6,0.007400000000000073
mp-1199595,MnSn4H24C8(Se5N)2,0.9292
mp-22027,MnSnAu,0.003099999999999881
mp-558761,MnSnF6,2.4058
mp-25005,MnSnO3,0.8775999999999993
mp-1221598,MnTe(PbO3)2,1.0198
mp-19689,MnTe2O5,2.0429000000000004
mp-1196302,MnTe4(H3N)6,0.4976
mp-1201691,MnTe6O13,2.3213
mp-650943,MnTeC5O6F5,2.1447000000000003
mp-19090,MnTeMoO6,2.3748
mp-1176417,MnTeO3,2.664599999999999
mp-557979,MnTl2As2S5,0.6165999999999996
mp-638590,MnTl2GeTe4,0.18649999999999967
mp-25541,MnTl2H2OF5,1.218
mp-569859,MnTl2SnTe4,0.3083
mp-570300,MnTlCl3,1.9325000000000008
mp-1221565,MnTlCuSe2,0.061599999999999426
mp-998762,MnTlF3,2.6287000000000003
mp-1102938,MnTlF4,1.9049
mp-743564,MnTlH2OF4,1.6629
mp-23443,MnTlI3,1.3903999999999996
mp-774043,MnV(P2O7)2,1.0275
mp-770182,MnV(PO4)2,0.1029
mp-1194034,MnV2(PbO4)2,1.7683999999999995
mp-640173,MnV2O4,1.4876
mp-777555,MnV2O6,1.9661
mp-698721,MnV2P2(H4O7)2,1.7461
mp-651951,MnV2TeO7,1.7484000000000002
mp-775134,MnV3(PO4)4,0.4761000000000002
mp-774413,MnV3(PO4)6,0.6786000000000001
mp-1176460,MnV3Co2(PO4)6,0.0030000000000001137
mp-761531,MnV3Ni2(PO4)6,0.10460000000000004
mp-767358,MnV3Sb2(PO4)6,0.00439999999999996
mp-771726,MnV4CoO12,2.0634
mp-771677,MnV4CrO12,0.20690000000000008
mp-1176412,MnV4FeO12,1.8649
mp-853162,MnV4NiO12,2.0117000000000003
mp-766904,MnV4O12,0.9208
mp-1176430,MnV5(PO4)6,0.1629999999999998
mp-776190,MnV5O12,0.5676000000000001
mp-558718,MnVAgO4,1.8677
mp-566406,MnVBiO5,2.0765
mp-510459,MnVCuO4,1.0457
mp-541496,MnVH4O2F5,2.1658
mp-762162,MnVHPbO5,1.8768
mp-1210967,MnVO2F5,0.5777999999999999
mp-1106224,MnVO3,0.3014999999999999
mp-25559,MnVO4,0.03269999999999995
mp-766980,MnVP2(HO5)2,1.2374999999999998
mp-777435,MnVP2(O4F)2,1.1557
mp-542478,MnVSbO6,1.1414999999999995
mp-19407,MnWO4,2.3563
mp-1180589,MnZn(Br2O3)2,0.2301000000000002
mp-1221557,MnZn(CrS2)4,0.40609999999999946
mp-1221602,MnZn(FeO2)4,1.5465999999999998
mp-1221562,MnZn(GaSe2)4,0.8953
mp-1043445,MnZn(GeO3)2,1.2945
mp-1043523,MnZn(Si2O5)2,2.8729000000000005
mp-1171226,MnZn(SiO3)2,2.6410000000000005
mvc-13424,MnZn2SbO6,0.7836000000000003
mp-1181196,MnZn2Si(HO3)2,1.1363
mp-1180274,MnZn2SiO6,0.7368999999999999
mp-1047316,MnZn2WO6,2.1513
mp-1221561,MnZn3(CrSe2)8,0.2109000000000001
mp-1221586,MnZn3(FeO2)8,1.3085999999999998
mp-1222690,MnZn3(MoO5)9,0.03639999999999999
mp-1221534,MnZn3S4,0.4948000000000001
mp-1222103,MnZn4(IO3)10,2.5267000000000004
mp-774024,MnZn4O5,0.00099999999999989
mp-1221530,MnZn4S5,0.7744999999999997
mp-1221515,MnZn4Se5,0.6384000000000001
mp-1042806,MnZnAs2O7,0.9526
mvc-5763,MnZnAsO5,1.2302000000000002
mp-1042652,MnZnBiO5,0.8815
mp-1221520,MnZnCdTe3,0.40790000000000015
mvc-3477,MnZnF4,3.2142
mvc-14335,MnZnF5,1.2201
mvc-15848,MnZnF6,2.2795
mp-1201453,MnZnH22C5N10(Cl2O3)2,4.0855
mvc-8316,MnZnNiP2O9,0.10919999999999996
mp-1046085,MnZnO2,0.0389999999999997
mp-770583,MnZnO3,1.4603000000000002
mp-1048260,MnZnP2O7,3.1413
mp-1046651,MnZnPO5,1.0373
mp-1221502,MnZnS2,0.4462999999999999
mp-1221500,MnZnSe2,0.2445999999999997
mp-1046626,MnZnSiO5,0.7772000000000001
mp-1221497,MnZnTe2,0.19559999999999975
mp-1104471,Mo(Br2N)2,0.3316000000000001
mp-25082,Mo(CO)6,3.1536
mp-626577,Mo(HO2)2,3.1832
mp-1190250,Mo(NCl2)3,1.1856
mp-1205766,Mo(NCl3)2,1.1549
mp-1180351,Mo(NO2)2,0.961
mp-1198436,Mo(NO4)2,2.8165
mp-542766,Mo(PO3)3,4.2428
mp-695772,Mo(PO3)4,1.8372
mp-504210,Mo(PO3)5,0.1249