task_id,pretty_formula,band_gap
mp-1222343,LiZnFeO3,1.7523
mp-1210934,LiZnInF6,4.0656
mp-10182,LiZnP,1.3386
mp-1211621,LiZnP2HO7,4.4593
mp-24585,LiZnPH2O5,4.0249000000000015
mp-555743,LiZnPO4,4.1939
mp-11175,LiZnPS4,2.7311999999999994
mp-1222336,LiZnRhF6,1.625
mp-1203440,LiZnSO4F,4.274
mp-9919,LiZnSb,0.4057000000000004
mp-1196671,LiZnSi2H47C17N4,2.8642
mp-1202818,LiZr2(AsO4)3,3.9613
mp-10499,LiZr2(PO4)3,4.2388
mp-1029297,LiZr2N3,0.31210000000000004
mp-601344,LiZr3H18N4F19,6.0167
mp-1222537,LiZr5TlF22,5.2372
mp-1097197,LiZrCu2,0.09820000000000027
mp-1095873,LiZrHg2,0.18630000000000013
mp-753649,LiZrPCO7,4.1552
mp-973586,Lu(AlC)3,0.15270000000000028
mp-680724,Lu(BO2)3,5.8459
mp-754693,Lu(BiO2)3,2.1004000000000005
mp-29789,Lu(ClO4)3,5.7305
mp-1222528,Lu(CuS)3,1.2595999999999998
mp-625468,Lu(HO)3,5.0249000000000015
mp-572998,Lu(IO3)3,3.5151
mp-29339,Lu(NbCl3)6,0.13280000000000006
mp-1198201,Lu(PO3)3,5.7719
mp-35618,Lu10Ti6O27,2.4954
mp-1199571,Lu11Cd45,0.056500000000000224
mp-1199665,Lu13Zn58,0.013100000000000113
mp-607712,Lu2(CN2)3,4.1739000000000015
mp-1211136,Lu2(MoO4)3,3.9105
mp-768453,Lu2(SO4)3,5.9635
mp-1204198,Lu2(SO5)3,0.33230000000000004
mp-1202045,Lu2(TeO3)3,3.0637
mp-771357,Lu2(WO4)3,4.7686
mp-1203152,Lu20Os5I24,0.05909999999999992
mp-1196028,Lu2B2N2O13,0.1282000000000001
mp-772781,Lu2B4O9,5.7803
mp-1210839,Lu2Be2GeO7,4.3192
mp-1210829,Lu2Be2SiO7,5.0025
mp-573376,Lu2CCl2,1.0343999999999998
mp-8269,Lu2CdS4,1.2348
mp-1103982,Lu2CdSe4,0.6974999999999998
mp-1190475,Lu2CoTe2(SO7)2,2.9153
mp-17268,Lu2Cu(B2O5)2,0.6675
mp-1210874,Lu2Cu(GeO3)4,0.8990999999999998
mp-15335,Lu2Cu2O5,0.2839999999999998
mp-1207304,Lu2CuAs3,0.1633
mp-1207339,Lu2CuSb3,0.13949999999999996
mp-1190203,Lu2CuTe2(SO7)2,0.7813999999999997
mp-8346,Lu2Ge2O7,3.7065
mp-768388,Lu2GeO5,3.9489
mp-1238443,Lu2H16S3O20,0.743
mp-14304,Lu2MgS4,1.9819
mp-10191,Lu2MgSe4,1.477
mp-19153,Lu2Mn2O7,1.0081000000000002
mp-1222433,Lu2Mn3Sb3O14,0.9087999999999994
mp-14305,Lu2MnS4,1.0720999999999998
mp-1103893,Lu2MnSe4,0.7573999999999996
mp-1210966,Lu2Mo4O15,3.3108
mp-1211057,Lu2MoO6,2.0923000000000003
mp-776491,Lu2P4O13,5.4581
mp-755375,Lu2Pb2O7,0.8772000000000002
mp-1192803,Lu2PbS4,2.3212000000000006
mp-1192914,Lu2PbSe4,1.8042
mp-17662,Lu2PdO4,0.5854000000000004
mp-753414,Lu2Pt2O7,1.6988999999999996
mp-2826,Lu2S3,2.5704
mp-12673,Lu2SO2,3.0925
mp-772486,Lu2Sb2O7,2.0964
mp-1223087,Lu2ScV3O9,1.5885999999999996
mp-1189125,Lu2Se3,1.365
mp-1206825,Lu2SeO2,2.0223000000000004
mp-7193,Lu2Si2O7,4.8449
mp-1222448,Lu2Si9B36C,1.2229
mp-16969,Lu2SiO5,4.6922
mp-15170,Lu2Sn2O7,2.6065
mp-1189748,Lu2Te3,0.5877000000000003
mp-542676,Lu2Te4O11,3.2085
mp-557829,Lu2Te5O13,3.0335
mp-755515,Lu2TeO6,2.9822
mp-1222714,Lu2Ti12(CuO4)9,0.3167
mp-3200,Lu2Ti2O7,2.5102
mp-771031,Lu2TiO5,3.2719
mp-25127,Lu2V2O7,1.1487999999999996
mp-566891,Lu2WO6,3.612
mp-18332,Lu2ZnS4,2.3856
mp-14132,Lu3Al5O12,5.0364
mp-756742,Lu3AlO6,4.5825
mp-554282,Lu3B5O12,5.426500000000001
mp-16093,Lu3Co29(Si2B5)2,0.012199999999999987
mp-1210964,Lu3CrS6,0.3361000000000001
mp-565213,Lu3Fe5O12,1.6294999999999995
mp-14134,Lu3Ga5O12,2.3544
mp-21750,Lu3Ge13Rh4,0.06299999999999972
mp-1197390,Lu3InS6,1.1627999999999998
mp-676725,Lu3NbO7,2.0954
mp-17673,Lu3O2F5,5.639399999999998
mp-1189199,Lu3Sb4Au3,0.6118000000000006
mp-768483,Lu3Sb5O12,3.1058000000000003
mp-1222459,Lu3ScV4O12,1.4955999999999996
mp-755660,Lu3TaO7,3.3260000000000005
mp-1105890,Lu3Tl2Cu5Se8,1.1021
mp-771772,Lu4(B2O5)3,5.8261
mp-780420,Lu4Al2O9,4.5421
mp-1210662,Lu4CdNi,0.05369999999999964
mp-1210768,Lu4CdPd,0.014899999999999913
mp-1210803,Lu4CdPt,0.04820000000000002
mp-18222,Lu4Ge6Rh7,0.13680000000000006
mp-505680,Lu4Ge6Ru7,0.07859999999999978
mp-676653,Lu4Hf3O12,4.5947
mp-1226461,Lu4IO13,0.0514
mp-1210928,Lu4InRh,0.3091999999999997
mp-1211003,Lu4MgNi,0.032899999999999714
mp-1222397,Lu4MnS7,0.6326
mp-566596,Lu4Mo4O11,0.4055999999999997
mp-16190,Lu4Zn5Ge6,0.08139999999999993
mp-1222825,Lu4Zr3O12,4.1175
mp-1210574,Lu5(ReO6)2,0.14040000000000008
mp-1210524,Lu5SbPt2,0.07029999999999959
mp-1210969,Lu6Al43V4,0.045900000000000496
mp-28216,Lu6Ge4O17,3.7402
mp-1201491,Lu6H40N8O49,2.9729
mp-755804,Lu6TeO12,2.8127000000000004
mp-20402,Lu6UO12,1.9482
mp-773285,Lu6WO12,3.4395999999999995
mp-1222906,Lu9B5S21,1.3054000000000006
mp-1210947,LuAg(WO4)2,3.1655999999999995
mp-1205963,LuAgGe,0.016499999999999737
mp-1018025,LuAgO2,2.1527000000000003
mp-1173065,LuAgS2,0.8084999999999996
mp-1189356,LuAgSe2,1.3039
mp-1206851,LuAgTe2,1.1553000000000004
mp-14760,LuAl3(PbO4)2,2.9847999999999995
mp-755574,LuAlO3,5.7429000000000014
mp-7644,LuAsO4,3.533300000000001
mp-1095656,LuAsSe,0.1377000000000006
mp-14802,LuAu2F9,1.897
mp-11219,LuB2,0.12119999999999995
mp-7560,LuBO3,5.3023
mp-1211031,LuBeNF6,1.8884
mp-545847,LuBi2BrO4,1.3984000000000003
mp-550805,LuBi2ClO4,1.4617999999999998
mp-550635,LuBi2IO4,1.9811
mp-1176501,LuBiO3,3.1319999999999997
mp-1222293,LuBiTe3,1.1115000000000004
mp-866214,LuBr3,3.0669000000000004
mp-973981,LuBrO,4.3926
mp-2217,LuCd,0.04339999999999966
mp-865324,LuCl3,3.8453
mp-561616,LuCoO3,0.002799999999999692
mp-1190663,LuCrB4,0.21480000000000032
mp-773298,LuCrO3,2.5313000000000003
mp-19360,LuCrO4,0.2333000000000003
mp-18595,LuCu(BO2)5,0.7753999999999999
mp-505162,LuCu(WO4)2,1.1959999999999995
mp-1222325,LuCuPbS3,1.5919999999999996
mp-865492,LuCuPbSe3,1.0865
mp-1001780,LuCuS2,1.4619999999999995
mp-677241,LuCuSe2,1.1077000000000004
mp-1210818,LuF3,7.716
mp-1193395,LuFeO3,1.1635
mp-1222272,LuGaCoO4,1.7347
mp-768505,LuGaO3,2.8828
mp-540955,LuH18C3S3(O2F)9,5.7735
mp-600181,LuH24C4N4Cl7,4.8904
mp-976349,LuH2ClO2,4.8104
mp-1191245,LuH3,0.3883000000000001
mp-757220,LuH6(ClO5)3,5.3849
mp-625367,LuHO2,4.1067
mp-1206843,LuHSe,1.5204999999999995
mp-2522,LuHg,0.06780000000000007
mp-865521,LuI3,2.1804
mp-1195893,LuI3O10,0.3059000000000001
mp-1193651,LuI3O11,0.23600000000000002
mp-973585,LuIO,3.2624
mp-1211825,LuIO9,0.4751
mp-1222556,LuInO6,1.0991000000000004
mp-12129,LuInPd2,0.04319999999999968
mp-1185595,LuMg149,0.32550000000000034
mp-555674,LuMn2O5,1.0698000000000003
mp-1194285,LuMoBrO4,2.0055
mp-567057,LuMoClO4,2.8844
mp-1102,LuN,0.24209999999999976
mp-1204124,LuN3O13,0.3435000000000001
mp-1211206,LuN7O15,0.012700000000000156
mp-1211982,LuNb6Cl13O3,0.9471
mp-644492,LuNbO4,3.3963000000000005
mp-11491,LuNi5,0.0018000000000002456
mp-30457,LuNiBi,0.013399999999999856
mp-19327,LuNiO3,0.030400000000000205
mp-20185,LuNiSb,0.2159000000000004
mp-31433,LuNiSn4,0.011299999999999422
mp-1185498,LuNpO3,0.1504999999999992
mp-1210775,LuOF,4.942500000000001
mp-601348,LuP2H4NO7,4.9841
mp-9853,LuP5,0.18769999999999956
mp-554113,LuP5O14,5.4534
mp-2940,LuPO4,5.9556
mp-1210791,LuPPd,0.006299999999999528
mp-30287,LuPS4,2.1701
mp-1222263,LuPaO4,2.4933000000000005
mp-1211006,LuPtF7,1.9721
mp-1205366,LuRhO3,0.9995000000000004
mp-27246,LuSBr,2.9978
mp-555850,LuSF,2.6141
mp-1210823,LuSI,1.2579000000000002
mp-1237257,LuSbO4,2.3400000000000003
mp-1222283,LuSc(BO3)2,4.5543
mp-1222824,LuSc(FeO3)2,1.0526
mp-772180,LuScO3,3.0863
mp-23096,LuSeClO3,4.3255
mp-1210620,LuSeF,1.8799
mp-1206671,LuSeI,0.2774000000000001
mp-768293,LuSeO3,1.6850999999999998
mp-1095437,LuSeO3F,3.9702
mp-1103,LuSi2,0.02259999999999973
mp-1210917,LuSnF7,4.7363
mp-756704,LuTa3O9,3.3027
mp-1210770,LuTa5Ag2O15,2.6212
mp-662606,LuTa6Br13O3,0.9255
mp-780049,LuTa7O19,3.1931
mp-5489,LuTaO4,4.3138
mp-1222583,LuTaTiO6,3.3459
mp-1210698,LuTiClO3,3.0748000000000006
mp-1210736,LuTl(WO4)2,2.9703000000000004
mp-2060,LuTl3,0.0903999999999998
mp-754992,LuTlO2,1.2129
mp-754597,LuTlO3,0.6919000000000004
mp-1001604,LuTlS2,2.1521
mp-1001611,LuTlSe2,2.0413
mp-1017508,LuTlTe2,1.5741
mp-769783,LuVO3,1.6225999999999994
mp-18993,LuVO4,2.9436
mp-772271,LuWO4,1.9631000000000003
mp-11496,LuZn,0.06229999999999958
mp-1222463,LuZn4FeO7,0.8824000000000001
mp-1222253,LuZnCuAs2,0.03609999999999936
mp-1222267,LuZnFeO4,1.2218999999999998
mp-531792,LuZr3F15,5.5183
mp-1212494,LuZr6(PO4)9,3.7359
mp-1047695,Mg(AgO2)2,0.4927000000000002
mp-531611,Mg(AlB14)2,0.7667999999999999
mp-9514,Mg(AlC)2,1.7481
mp-542463,Mg(AlCl4)2,5.1636
mp-23709,Mg(AlH4)2,4.3638
mp-3872,Mg(AlS2)2,3.0678
mp-9479,Mg(AlSe2)2,1.053
mp-8708,Mg(AuF4)2,1.9247
mp-868019,Mg(B2O5)3,0.3073
mp-1181440,Mg(B3O8)2,0.09660000000000002
mp-568803,Mg(B6C)2,2.1397000000000004
mp-3582,Mg(BC)2,1.0168999999999997
mp-1198945,Mg(BH3)2,5.4389
mp-1200811,Mg(BH4)2,6.7725
mp-1201208,Mg(BO2)12,0.0504
mp-1181233,Mg(BO4)4,0.04649999999999999
mp-865185,Mg(BeAs)2,0.4079999999999995
mp-11917,Mg(BeN)2,4.0657000000000005
mp-1017628,Mg(BeP)2,0.851
mp-1042238,Mg(BiO2)2,2.5933
mp-1048014,Mg(BiO2)4,0.4612000000000003
mp-28447,Mg(BiO3)2,0.00199999999999978
mp-1078861,Mg(BrO3)2,4.1768
mp-1211084,Mg(BrO6)2,0.4292999999999999
mp-10553,Mg(C2N3)2,4.6077
mp-1191802,Mg(C2O3)2,0.8904
mp-36940,Mg(CN)2,6.162699999999999
mp-754005,Mg(CO2)2,3.4504
mp-1180469,Mg(CO3)2,0.5708000000000002
mp-1192665,Mg(ClO5)2,0.005800000000000249
mp-1043200,Mg(Co2O3)2,0.3072999999999997
mvc-78,Mg(CoS2)2,0.7116999999999996
mvc-91,Mg(CrS2)2,1.0583
mp-996957,Mg(CrSe2)2,0.6322000000000001
mp-1041631,Mg(CuO2)2,0.3798999999999997
mp-1043253,Mg(Fe2O3)2,0.7306999999999997
mp-773318,Mg(Fe5O8)2,1.0978000000000003
mp-608885,Mg(FeO2)2,1.7092999999999998
mp-38951,Mg(GaO2)2,2.4348999999999994
mp-667323,Mg(GaS2)2,1.9741
mp-24383,Mg(H2N)2,3.0137
mp-1210689,Mg(H3Cl)2,0.9297
mp-30247,Mg(HO)2,4.1797
mp-1193322,Mg(Hg11N3)2,0.03859999999999997
mp-38322,Mg(IO3)2,3.4840000000000004
mp-1181590,Mg(IO8)2,1.2033
mp-1232207,Mg(InS2)2,1.5138000000000005
mp-1006591,Mg(InSe2)2,1.541
mp-1222182,Mg(InTe2)2,1.1261000000000003
mvc-12777,Mg(Mo3O8)2,0.9097
mvc-5692,Mg(MoO2)2,2.886
mp-1046025,Mg(MoO2)4,0.14590000000000014
mp-1045691,Mg(MoO3)2,0.8715999999999999
mp-1180607,Mg(N3O8)2,0.1200000000000001
mp-1020058,Mg(NO3)2,3.4662
mp-1192018,Mg(NO4)2,0.4061
mp-1180567,Mg(NO6)2,0.05479999999999974
mp-770397,Mg(NiO2)2,0.2898999999999998
mp-771873,Mg(NiO2)4,0.7560000000000002
mp-18620,Mg(PO3)2,5.5284
mp-1211050,Mg(PO5)2,2.7131000000000003
mp-8208,Mg(PtO2)3,0.2984
mp-754311,Mg(ReO4)2,3.965500000000001
mp-3319,Mg(RhO2)2,1.1521
mp-27219,Mg(SbO2)2,2.5511
mp-1046238,Mg(SbO2)4,2.1319999999999997
mp-3653,Mg(SbO3)2,1.0374999999999996
mp-14307,Mg(ScS2)2,1.5651000000000002
mp-1001019,Mg(ScSe2)2,1.0918
mp-567224,Mg(SiB6)2,1.9315000000000009
mp-1047786,Mg(SnO2)2,1.1012000000000004
mp-1046228,Mg(SnO2)4,0.4555999999999996
mvc-13450,Mg(VN)2,0.14559999999999995
mp-1046915,Mg(WO2)2,1.1872000000000005
mvc-157,Mg(WO2)4,0.8003999999999998
mp-1045742,Mg(WO3)2,1.1675000000000004
mp-1180416,Mg10(SiO6)3,0.07690000000000019
mp-761768,Mg10FeO11,3.5480000000000014
mp-560872,Mg10Ge3(H2O9)2,3.907000000000001
mp-695890,Mg10Si3(H2O9)2,4.9506999999999985
mp-1194872,Mg10Si3(O7F2)2,4.736899999999999
mp-1222637,Mg10TiSn(BO5)4,3.2464
mp-1200279,Mg11(Al2Cu)6,0.04649999999999999
mp-705780,Mg11(Fe15O28)2,1.1207000000000005
mp-743592,Mg11AlFeSi11O36,2.7399
mp-765028,Mg11Mn2O13,1.9335000000000004
mp-757825,Mg11Ti25O60,0.027099999999999902
mp-1182703,Mg12Fe4C2O47,0.2206
mp-1185591,Mg149Ag,0.5665
mp-1185596,Mg149Al,0.5011000000000001
mp-1185573,Mg149Au,0.5612999999999997
mp-1185586,Mg149Be,0.5261
mp-1185557,Mg149Bi,0.2936000000000001
mp-1185549,Mg149Br,0.0020999999999999908
mp-1185581,Mg149Cd,0.5741999999999998
mp-1185584,Mg149Cl,0.1166999999999998
mp-1185585,Mg149Cr,0.024500000000000192
mp-1185592,Mg149Fe,0.07790000000000008
mp-1185597,Mg149Ga,0.4779
mp-1185556,Mg149H,0.04259999999999975
mp-1185579,Mg149Hg,0.5682
mp-1185590,Mg149I,0.0024999999999999467
mp-1185594,Mg149In,0.5296000000000003
mp-1185575,Mg149Ir,0.05410000000000004
mp-1185627,Mg149Mn,0.10950000000000017
mp-1185565,Mg149Mo,0.15039999999999987
mp-1185589,Mg149Nb,0.11850000000000005
mp-1185599,Mg149Ni,0.015099999999999891
mp-1185600,Mg149Os,0.07920000000000016
mp-1185593,Mg149P,0.00029999999999974486
mp-1185570,Mg149Pb,0.38299999999999995
mp-1185580,Mg149Pd,0.0141
mp-1185568,Mg149Pt,0.018000000000000238
mp-1185583,Mg149Re,0.1107999999999998
mp-1185582,Mg149Rh,0.04420000000000002
mp-1185555,Mg149Ru,0.0653999999999999
mp-1185578,Mg149S,0.1578999999999997
mp-1185628,Mg149Sb,0.2667999999999999
mp-1185631,Mg149Sc,0.24960000000000004
mp-1185632,Mg149Se,0.17110000000000006
mp-1185634,Mg149Si,0.3403999999999998
mp-1185637,Mg149Sn,0.4181000000000004
mp-1185640,Mg149Ta,0.14610000000000012
mp-1185636,Mg149Tc,0.09729999999999972
mp-1185638,Mg149Te,0.15290000000000026
mp-1185639,Mg149Ti,0.20029999999999992
mp-1185635,Mg149Tl,0.4887999999999999
mp-1185641,Mg149V,0.08070000000000023
mp-1185642,Mg149Zn,0.5779999999999998
mp-1185655,Mg149Zr,0.033399999999999874
mp-1036399,Mg14AlBO16,0.7097000000000007
mp-1036469,Mg14AlBiO16,0.007899999999999352
mp-1036461,Mg14AlCO16,0.4433999999999996
mp-1036395,Mg14AlCdO16,0.3940999999999999
mp-1036619,Mg14AlCoO16,0.9659999999999992
mp-1036586,Mg14AlCrO16,0.3287999999999993
mp-1036652,Mg14AlCuO16,0.9578999999999996
mp-1036658,Mg14AlFeO16,0.4600999999999989
mp-1036618,Mg14AlNiO16,1.9982999999999995
mp-1036604,Mg14AlSiO16,0.0799000000000003
mp-1036646,Mg14AlSnO16,0.010600000000000165
mp-1036641,Mg14AlVO16,0.2257999999999996
mp-1033747,Mg14BiBO16,0.7358000000000002
mp-27295,Mg14Ge5O24,3.4455
mp-1036650,Mg14MnAlO16,0.14509999999999934
mp-1036154,Mg14MnBiO16,0.019499999999998963
mp-1036119,Mg14MnCO16,0.5110999999999999
mp-1036069,Mg14MnCdO16,2.0002000000000004
mp-1036235,Mg14MnCoO16,1.4079000000000006
mp-1036104,Mg14MnCrO16,1.4760999999999995
mp-1036333,Mg14MnCuO16,0.0486999999999993
mp-1036237,Mg14MnFeO16,2.2435
mp-1036266,Mg14MnNiO16,1.9126000000000003
mp-1036087,Mg14MnSiO16,1.2005999999999997
mp-1036224,Mg14MnSnO16,0.7448000000000006
mp-1036151,Mg14MnVO16,1.7482000000000006
mp-1036184,Mg14MnZnO16,2.2032
mp-28663,Mg14Si5O24,4.677800000000001
mp-1036557,Mg14TiAlO16,0.055300000000000786
mp-1035754,Mg14ZnCdO16,3.1800000000000006
mp-1035833,Mg14ZnCuO16,0.11169999999999992
mp-1035831,Mg14ZnFeO16,2.7795
mp-531778,Mg17(As3O16)2,3.1126000000000005
mp-757674,Mg17(SiO3)16,0.0210000000000008
mp-1196569,Mg17(SiO3)20,0.12260000000000006
mp-1203861,Mg2(SiO3)3,0.1481
mp-768893,Mg2(TeO3)3,1.7748
mp-743959,Mg21FeSi12(HO16)3,1.6845999999999997
mp-1212554,Mg29Pd4,0.08079999999999997
mvc-14565,Mg2AgSbO6,0.32759999999999945
mp-1047193,Mg2AgWO6,0.04429999999999978
mp-1223304,Mg2Al16Fe6Si20O73,1.1825
mp-1185757,Mg2Al2O5,0.9265
mp-29624,Mg2Al2Se5,1.0990000000000002
mp-6174,Mg2Al4Si5O18,4.8175
mp-1222192,Mg2AlO6,0.1614
mp-5618,Mg2As2O7,3.0403
mp-1202676,Mg2As2O9,0.6638000000000001
mp-1199509,Mg2AsO5,0.6945
mp-1193704,Mg2B(PO5)2,0.06359999999999999
mp-1201885,Mg2B12H24O35,0.23519999999999985
mp-568556,Mg2B24C,2.4909
mp-18256,Mg2B2O5,5.1536
mp-1202789,Mg2B4H22C2S,5.0228
mp-1102794,Mg2BBrN2,3.3364000000000003
mp-581639,Mg2BN2Cl,3.6701
mp-7995,Mg2BO3F,4.4508
mp-1210705,Mg2BO4,0.2709000000000001
mp-553891,Mg2BP3(H3O7)2,5.1936
mp-1211021,Mg2Be3(NF6)2,0.0015000000000000568
mp-1198243,Mg2Be3P3H13O19,5.3395
mp-1210925,Mg2Be3Tl2F12,5.668900000000002
mvc-3752,Mg2Bi2O5,1.8327
mp-561518,Mg2BiAsO6,3.3424
mp-558660,Mg2BiPO6,3.623
mvc-15344,Mg2BiSbO6,1.5850000000000009
mvc-4979,Mg2BiWO6,2.0712
mp-28793,Mg2C3,1.6533000000000002
mp-1196274,Mg2C3ClO15,0.1286999999999998
mp-1199407,Mg2CClO6,0.004800000000000026
mp-1200429,Mg2CO5,0.06500000000000006
mp-1198304,Mg2Cd(ClO2)6,0.01539999999999997
mp-1203195,Mg2CdH24(BrO2)6,3.3704
mp-1096201,Mg2CdIr,0.08469999999999978
mp-1096324,Mg2CdPb,0.4428000000000001
mp-1097401,Mg2CdPd,0.3687999999999998
mp-1093552,Mg2CdPt,0.07119999999999971
mp-1097393,Mg2CdRh,0.15739999999999998
mp-1097498,Mg2CdSn,0.4466999999999999
mp-1190570,Mg2ClO3,0.1464
mp-1180478,Mg2ClO7,0.18540000000000006
mp-1076088,Mg2Co2O5,0.7431000000000001
mvc-3029,Mg2Co3O8,0.13329999999999975
mp-642660,Mg2CoH5,0.19469999999999965
mp-769655,Mg2CoO4,0.7200000000000002
mvc-15619,Mg2CoSbO6,0.7328999999999999
mp-1047117,Mg2CoWO6,2.6152
mvc-15182,Mg2Cr2(SiO4)3,0.8582999999999998
mvc-3948,Mg2Cr2O5,0.9376000000000002
mp-1042695,Mg2Cr3O8,0.8362000000000003
mp-1210760,Mg2Cr5(PO4)6,0.5332999999999997
mvc-13423,Mg2CrSbO6,2.4274
mp-1047222,Mg2CrWO6,1.6677999999999995
mp-1180744,Mg2Cu2CO11,0.12280000000000002
mp-759001,Mg2Cu2P2(H4O5)3,0.10219999999999983
mp-1096503,Mg2CuAg,0.010999999999999677
mp-1211065,Mg2CuAs2,0.14410000000000034
mp-1097462,Mg2CuAu,0.15580000000000016
mvc-2126,Mg2CuN2,0.2810000000000006
mvc-13647,Mg2CuSbO6,0.2840999999999996
mvc-5013,Mg2CuWO6,0.4165000000000001
mvc-12287,Mg2Fe2(SiO4)3,0.9051999999999998
mp-705864,Mg2Fe2O5,0.3287
mp-1222243,Mg2Fe5(SiO3)8,2.1014
mp-1222550,Mg2Fe7O12,0.8341999999999996
mp-1045982,Mg2Fe9O13,0.5634000000000001
mp-1210692,Mg2FeBO5,2.0738000000000003
mp-23804,Mg2FeH6,1.914
mvc-15544,Mg2FeN2,0.1593
mvc-13829,Mg2FeSbO6,1.9207
mp-1047202,Mg2FeWO6,2.3713
mp-1206963,Mg2Ga2S5,1.1474000000000002
mp-1095868,Mg2GaAu,0.042999999999999705
mp-1095976,Mg2GaCu,0.024900000000000144
mp-1096317,Mg2GaHg,0.06390000000000029
mp-1097225,Mg2GaPb,0.12939999999999996
mp-3051,Mg2GeO4,3.4021
mp-17441,Mg2GeS4,2.311
mp-1203506,Mg2H18Se2O17,3.8907
mp-30244,Mg2H2O3,3.5667
mp-1203438,Mg2H32Ru2Cl10O17,0.6235
mp-643023,Mg2H4Ru,0.8613
mp-643002,Mg2H6Os,3.3481
mp-697030,Mg2H6Ru,3.0681000000000003
mp-1096230,Mg2HgBi,0.09820000000000027
mp-1095767,Mg2HgPb,0.3946000000000001
mp-1097541,Mg2HgPd,0.5148000000000001
mp-1096443,Mg2HgPt,0.007700000000000262
mp-1096715,Mg2HgRh,0.2178
mp-1097591,Mg2InAg,0.043200000000000134
mp-1096679,Mg2InGa,0.040000000000000036
mp-1093713,Mg2InPb,0.113
mvc-5786,Mg2IrWO6,1.3015
mp-1193663,Mg2Mn(PO4)2,3.5286
mvc-11375,Mg2Mn2(SiO4)3,1.3375000000000004
mp-1003485,Mg2Mn3O6,0.1482000000000001
mp-770496,Mg2Mn3O7,0.5144000000000002
mp-770423,Mg2Mn3O8,1.3632000000000004
mp-1211445,Mg2MnGe2,0.6142999999999996
mp-744644,Mg2MnH24(ClO2)6,4.1512
mp-1029288,Mg2MnN3,0.03830000000000045
mp-1046844,Mg2MnNb2O8,2.6333999999999995
mvc-15612,Mg2MnSbO6,1.0465999999999998
mvc-4987,Mg2MnWO6,2.2515999999999994
mp-19139,Mg2Mo3O8,1.6410000000000005
mp-1047170,Mg2MoWO6,2.0027
mp-7589,Mg2NF,2.1274
mp-1046755,Mg2Nb2AgO8,0.0512999999999999
mp-1046744,Mg2Nb2CoO8,2.6316
mp-1046839,Mg2Nb2CrO8,1.1570999999999998
mp-1048563,Mg2Nb2CuO8,0.12870000000000026
mp-1048464,Mg2Nb2FeO8,2.4827000000000004
mp-1046848,Mg2Nb2NiO8,3.2587
mp-1046735,Mg2Nb2SnO8,2.3248
mp-1046746,Mg2Nb2TeO8,1.1145
mp-1046836,Mg2Nb2VO8,1.0759000000000007
mp-1046764,Mg2Nb2WO8,0.3799999999999999
mp-1222190,Mg2Nb3Bi3O14,2.647
mp-1029408,Mg2NbN3,2.6628000000000003
mvc-15503,Mg2Ni3O8,1.1748000000000005
mp-697331,Mg2NiH4,1.5719
mvc-14606,Mg2NiSbO6,0.2073999999999998
mvc-5066,Mg2NiWO6,2.6519000000000004
mp-721158,Mg2P2H12O13,5.0738
mp-1195826,Mg2P2O7,5.1624
mp-555396,Mg2PClO4,5.0406
mp-23740,Mg2PHO5,4.9827
mp-3933,Mg2PN3,3.537100000000001
mp-6095,Mg2PO4F,5.439
mp-859874,Mg2PbO4,1.3297999999999996
mp-33940,Mg2PtO4,1.1505
mp-1029627,Mg2ReN3,0.2400000000000002
mp-1197550,Mg2S2O13,0.7453
mp-1118447,Mg2Sb2O5,2.4926000000000004
mvc-15497,Mg2SbMoO6,1.1844
mp-1029378,Mg2SbN3,1.3582999999999998
mvc-5023,Mg2SbWO6,1.7832
mp-1185778,Mg2Si2O5,1.6567000000000007
mp-2895,Mg2SiO4,4.6395
mp-1193963,Mg2SiS4,2.967
mp-1192582,Mg2SiSe4,2.125
mvc-3800,Mg2Sn2O5,1.5166999999999993
mp-1042442,Mg2Sn3O8,1.9335000000000004
mp-1097268,Mg2SnHg,0.3927000000000001
mvc-15376,Mg2SnN2,0.2679
mp-34022,Mg2SnO4,2.5338
mp-1047188,Mg2SnWO6,2.2892
mp-1046092,Mg2Ta2CoO8,2.8262
mp-1046089,Mg2Ta2CrO8,1.5343999999999998
mp-1045955,Mg2Ta2CuO8,0.16069999999999984
mp-1046118,Mg2Ta2FeO8,3.0914999999999995
mp-1210629,Mg2Ta2Mn2O9,2.9947
mp-1046101,Mg2Ta2MnO8,3.3012999999999995
mp-1222197,Mg2Ta2Ni2O9,3.3968
mp-1046134,Mg2Ta2NiO8,3.7030000000000003
mp-1045918,Mg2Ta2SnO8,2.9823000000000004
mp-1045930,Mg2Ta2TiO8,0.03109999999999946
mp-1046091,Mg2Ta2VO8,1.6662
mp-1046203,Mg2Ta2WO8,0.6292
mvc-4152,Mg2TaAgO6,0.5513999999999997
mvc-4141,Mg2TaBiO6,2.3372
mvc-4358,Mg2TaCrO6,2.5844
mvc-4359,Mg2TaFeO6,2.1211
mvc-4366,Mg2TaMnO6,0.5998999999999994
mvc-4369,Mg2TaMoO6,2.0446
mp-1029442,Mg2TaN3,3.1028
mp-1048419,Mg2TaNb2O8,0.1711999999999998
mvc-15354,Mg2TaSbO6,1.4425
mvc-4360,Mg2TaVO6,0.13039999999999985
mp-1047112,Mg2TaWO6,2.6819000000000006
mp-769077,Mg2Te3O8,3.4615000000000005
mp-1222496,Mg2TePb4WO12,2.882000000000001
mvc-4986,Mg2TeWO6,0.8284000000000002