task_id,pretty_formula,band_gap
mp-1047531,Ca3Fe3(AsO4)4,2.3041
mp-1043101,Ca3Fe4(MoO4)6,1.2851000000000004
mp-1042781,Ca3Fe4(SbO4)6,1.6100999999999996
mp-1043059,Ca3Fe4(WO4)6,2.051
mp-1227996,Ca3Fe7(SiO4)6,2.4072000000000005
mp-18843,Ca3FeRhO6,1.4702000000000002
mvc-15035,Ca3Ga2(FeO5)2,0.15650000000000008
mp-1227716,Ca3Ga2(Ge2O7)2,3.0063
mp-1019565,Ca3Ga2(GeO4)3,2.9786
mp-14050,Ca3Ga2(SiO4)3,4.2496
mp-1228716,Ca3Ga2(SnO4)3,2.1366
mp-695070,Ca3Ga2Si(SnO6)2,2.9215
mp-29226,Ca3Ga4O9,2.6392999999999995
mp-12611,Ca3Ga8,0.017900000000000027
mp-541062,Ca3GaAs3,0.3329999999999997
mp-1029943,Ca3GaN3,0.8826
mp-555273,Ca3Ge(ClO2)2,4.1976
mvc-4268,Ca3Ge3(BiO6)2,2.9773
mvc-4467,Ca3Ge3(MoO6)2,2.3963
mp-1214274,Ca3Ge3(RhO6)2,1.5180000000000002
mvc-4270,Ca3Ge3(SbO6)2,2.2504
mvc-4469,Ca3Ge3(WO6)2,2.0636
mp-1204241,Ca3Ge4,0.32920000000000016
mp-17193,Ca3GeO,0.15500000000000025
mp-1227961,Ca3Hf2AlFeSiO12,2.9323
mp-743575,Ca3Hf2Fe2SiO12,2.656
mp-1214066,Ca3Hf3AgF20,0.8403000000000003
mp-15003,Ca3HfSi2O9,4.6779
mp-1214247,Ca3In2(GeO4)3,2.6908
mp-14052,Ca3In2(SiO4)3,3.668
mp-757442,Ca3In2O6,1.9618
mp-614572,Ca3InP3,0.9885000000000002
mp-6709,Ca3La3(BO3)5,4.1370000000000005
mp-1227769,Ca3LaTi2Cr2O12,0.5505999999999993
mp-1214423,Ca3Lu2(GeO4)3,3.2977
mp-558209,Ca3Mg(SiO4)2,4.8796
mp-1227854,Ca3Mg2Fe(CO3)6,3.9175
mp-646967,Ca3Mg3(PO4)4,5.0058
mp-1227744,Ca3Mg5(SiO3)8,4.7647
mp-1227888,Ca3Mg9Al8(SiO4)12,4.9744
mp-1227755,Ca3MgFe2(CO3)6,0.008600000000000385
mvc-13130,Ca3Mn2(FeO5)2,0.06600000000000006
mvc-12044,Ca3Mn2(GaO5)2,0.13439999999999985
mp-744259,Ca3Mn2(GeO4)3,1.0177
mvc-10908,Ca3Mn2(SbO6)2,0.5404999999999998
mp-565228,Ca3Mn2(Si2O7)2,1.817
mvc-14240,Ca3Mn2(WO6)2,0.7244000000000002
mp-19042,Ca3Mn2O7,0.2990000000000004
mp-1227969,Ca3Mn2SbO9,0.05659999999999999
mp-1228190,Ca3Mn2WO9,0.21649999999999991
mp-1047495,Ca3Mn3(AsO4)4,2.0392
mp-1003639,Ca3Mn4O8,0.4100999999999999
mp-1195426,Ca3MnCSO25,0.4118
mp-1214191,Ca3MnCuO6,0.5780999999999996
mp-1204717,Ca3MnH12S2O17,2.2613000000000003
mp-25543,Ca3MnNiO6,2.2759000000000005
mp-1227657,Ca3MnO4,2.9201999999999995
mp-1117615,Ca3Mo2O7,1.5118
mp-1029719,Ca3MoN3,0.0567000000000002
mp-640228,Ca3Nb2CoO9,2.2592
mp-554801,Ca3Nb4(O6F)2,2.9837
mp-673801,Ca3NdF9,6.1386
mvc-4441,Ca3Ni2(GeO4)3,0.1997
mvc-3715,Ca3Ni2O7,0.006899999999999906
mp-1047505,Ca3Ni3(AsO4)4,2.9327
mp-1013547,Ca3P2,0.35139999999999993
mp-707081,Ca3P4H20(NO10)2,4.9331
mp-29342,Ca3PCl3,1.8419000000000003
mp-27272,Ca3PI3,2.1548
mp-11824,Ca3PN,0.8045999999999998
mp-1227810,Ca3PbSe4,2.0151000000000003
mp-1013544,Ca3SbAs,0.40180000000000016
mp-1214080,Ca3SbI3,1.6899000000000002
mp-1013550,Ca3SbP,0.6592999999999996
mp-21989,Ca3Sc2(GeO4)3,3.4662
mp-6255,Ca3Sc2(SiO4)3,4.1025
mp-645593,Ca3ScCoO6,0.8271000000000002
mp-1227921,Ca3ScFe(SiO4)3,2.6315
mp-540868,Ca3Si(ClO2)2,4.3804
mp-696156,Ca3Si2(H3O5)2,4.7619
mp-585516,Ca3Si2O7,4.6202000000000005
mp-15095,Ca3Si2SnO9,3.4384
mp-1157153,Ca3Si3(AgO6)2,0.028500000000000195
mp-1163927,Ca3Si3(BiO6)2,3.3049
mp-1170750,Ca3Si3(MoO6)2,2.7007000000000003
mp-1154587,Ca3Si3(NiO6)2,0.07799999999999985
mvc-3679,Ca3Si3(SbO6)2,2.9617
mvc-3709,Ca3Si3(SnO6)2,0.21899999999999945
mp-1154711,Ca3Si3(WO6)2,2.4821
mp-1214046,Ca3Si4,0.41380000000000017
mvc-4273,Ca3Si4(AgO7)2,0.7143999999999999
mvc-4336,Ca3Si4(BiO7)2,2.8763
mvc-5059,Ca3Si4(MoO7)2,2.6183000000000005
mvc-4567,Ca3Si4(NiO7)2,0.7556999999999996
mvc-4317,Ca3Si4(SbO7)2,2.399
mvc-4508,Ca3Si4(SnO7)2,2.1922000000000006
mp-568050,Ca3SiBr2,0.5895999999999999
mp-1196628,Ca3SiCSO24,0.3604
mp-1199820,Ca3SiCSO25,0.027100000000000013
mp-1214820,Ca3SiH14CSO10,2.1639
mp-541025,Ca3SiH30CSO25,4.4162
mp-11649,Ca3SiO,0.18660000000000032
mp-641754,Ca3SiO5,3.9851
mp-1196842,Ca3SiS2O25,0.1014
mp-1183489,Ca3Sn,0.11279999999999955
mvc-14201,Ca3Sn2O7,2.9614
mp-1047561,Ca3Sn3(AsO4)4,2.5586
mp-866621,Ca3Sn4S11,0.4116999999999997
mp-1100790,Ca3Sn5S13,0.4344
mp-984605,Ca3SnH2,0.5185
mp-1100367,Ca3SnS5,1.7030999999999996
mvc-10909,Ca3Ta2Mn2O12,0.4478
mp-769266,Ca3Ta2O8,4.1056
mp-560378,Ca3Ta4(O6F)2,3.8739
mp-1043066,Ca3Ta6(FeO6)4,2.7559
mp-6853,Ca3TaGa3(SiO7)2,3.9122
mp-5279,Ca3TeO6,3.2469
mp-1227734,Ca3Ti(FeO4)2,1.9035
mvc-4143,Ca3Ti2(Si2O7)2,0.1205999999999996
mp-43094,Ca3Ti2AlSi3O14F,3.0113000000000003
mp-4163,Ca3Ti2O7,2.5214
mvc-6200,Ca3Ti3(AsO4)4,0.117
mp-1214263,Ca3Ti3Cr2O12,2.9727
mp-1229240,Ca3Ti3Si2GeO15,2.8797
mp-1227856,Ca3Ti4PbO12,1.6378000000000004
mp-43114,Ca3TiAl2Si3O13F2,3.0993
mp-558370,Ca3TiBe2Si2(As3O10)2,2.6233000000000004
mp-997184,Ca3TiNiO6,3.1807
mp-9216,Ca3Tl2O6,0.7309999999999999
mp-765585,Ca3Tl4O9,0.3713999999999995
mp-1214304,Ca3Tm2(GeO4)3,3.2763
mp-675286,Ca3UN4,1.3945
mp-14252,Ca3UO6,2.2602
mp-763453,Ca3V10O25,0.9242
mvc-10905,Ca3V2(BiO6)2,0.5779000000000001
mp-1171437,Ca3V2(Si2O7)2,1.9169
mp-1117603,Ca3V2O7,1.0451
mp-542076,Ca3V2O8,3.4501
mp-1041545,Ca3V3(AsO4)4,0.8916
mp-1042908,Ca3V6(FeO6)4,2.3211
mp-9029,Ca3VN3,0.7644999999999995
mvc-3726,Ca3W2O7,2.3978
mp-772583,Ca3W2O9,3.2671
mp-565908,Ca3WCl2O5,3.9325
mp-781505,Ca3WO6,3.706
mp-669331,Ca3Y2(GeO4)3,3.2592
mp-1214208,Ca3Y2(SiO4)3,3.8118
mp-744910,Ca3Y9Al18CrSiO48,0.5981999999999998
mp-694012,Ca3YAl3B4O15,4.4422
mp-695475,Ca3YGa3B4O15,3.9961
mp-743608,Ca3YMn3B4O15,1.379
mp-676491,Ca3Yb2Zr3Ti8O28,2.6925
mp-569617,Ca3Zn2(CuP2)2,0.04490000000000016
mp-14778,Ca3Zn3(TeO6)2,2.1295999999999995
mp-1019566,Ca3ZnGe5O14,2.4862
mp-1079594,Ca3ZnSe4,2.049
mp-1227925,Ca3Zr2AlFeSiO12,2.9299000000000004
mp-743696,Ca3Zr2Fe2SiO12,2.5971
mp-756052,Ca3Zr2O7,3.3234
mp-15004,Ca3ZrSi2O9,4.4537
mp-1228746,Ca43Al16Pb13,0.23950000000000005
mp-686702,Ca4Al11Si13(AgO16)3,2.4763
mp-707897,Ca4Al2H22CO20,4.5634
mp-1227719,Ca4Al3CrSiBO14,2.2056000000000004
mp-1227826,Ca4Al5CrSi6(HO13)2,3.8159
mp-1228294,Ca4Al5FeSi6(HO13)2,2.6711
mp-1227669,Ca4Al6CrO16,2.8043
mp-578961,Ca4Al6MoO16,3.718
mp-7531,Ca4Al6O13,3.9418
mp-8876,Ca4Al6SO12,3.7267
mp-1019575,Ca4Al6SO16,4.4190000000000005
mp-15312,Ca4Al6TeO12,3.1457
mp-579270,Ca4Al6WO16,3.9812
mp-1228916,Ca4AlSiH24SO16F13,5.5943000000000005
mp-8789,Ca4As2O,1.2134999999999998
mp-1194887,Ca4As3,0.4910999999999999
mp-1199574,Ca4As3H9O16,3.9189
mp-1214270,Ca4Be2Al2Si9O28,0.5663
mp-1227653,Ca4Be4P4O17F3,0.7796000000000001
mp-551873,Ca4Bi2O,0.8137000000000003
mp-5251,Ca4CN4,1.7906999999999995
mp-1197240,Ca4Ce2TiSi4(BO6)4,1.3490000000000002
mp-23326,Ca4Cl6O,5.2239
mp-1227707,Ca4Co3Si8NiO24,2.9042000000000003
mp-1046609,Ca4Co5(TeO6)3,1.5187000000000004
mp-1227711,Ca4CoSi8(NiO8)3,3.0791
mp-1046653,Ca4Cr5(TeO6)3,0.9722
mp-1227753,Ca4CrFe3O10,1.7001000000000004
mp-1046533,Ca4Cu5(TeO6)3,0.011099999999999888
mp-1214050,Ca4ErB3O10,4.425699999999999
mp-1046805,Ca4Fe5(TeO6)3,1.0503999999999998
mp-504795,Ca4Fe9O17,0.07260000000000044
mp-1228210,Ca4Ga3FeO10,2.0162000000000004
mp-6943,Ca4GdB3O10,3.2691
mp-29808,Ca4GeN4,1.4116
mp-1029730,Ca4HfN4,1.2158000000000002
mp-755949,Ca4I6O,3.2907999999999995
mp-1227770,Ca4La2Zr4O15,3.0499000000000005
mp-697834,Ca4La4Mn7NiO24,0.09260000000000003
mp-6076,Ca4LaB3O10,4.2993000000000015
mp-1227644,Ca4Mg3Fe(SiO3)8,3.4273
mp-643070,Ca4Mg3H14,3.1113
mp-1227614,Ca4Mg3Si8NiO24,4.6413
mp-644264,Ca4Mg4Fe3H22,1.4456000000000002
mp-1227623,Ca4Mg4P4O17F3,0.8080999999999998
mp-1227792,Ca4Mg4V3AsO20,0.6757
mp-1227598,Ca4MgAl2Si3O14,4.2782
mp-697563,Ca4MgB4H6(CO9)2,4.2989
mp-1227573,Ca4MgSi8(NiO8)3,4.4969
mp-18952,Ca4Mn2O7,1.3693999999999995
mp-566589,Ca4Mn3B3CO15,1.4971000000000003
mp-565885,Ca4Mn3O10,0.2972999999999999
mp-1227550,Ca4MnFe11Si8(HO9)4,0.5747
mp-1227204,Ca4MnFe3O10,1.2900000000000005
mp-31016,Ca4Nb2O9,3.2641
mp-1204714,Ca4NbGaO8,3.2777000000000003
mp-1214008,Ca4NdB3O10,4.3647
mp-1046817,Ca4Ni5(TeO6)3,1.7952999999999997
mp-5380,Ca4P2O,1.2714000000000003
mp-5263,Ca4P2O9,4.4843
mp-559537,Ca4P6O19,5.3618000000000015
mp-10299,Ca4PdO6,1.8227
mp-8568,Ca4PtO6,2.3917
mp-13660,Ca4Sb2O,0.9093999999999998
mp-35269,Ca4Sb2S,1.0818999999999992
mp-604909,Ca4Si2H2CO11,4.6256
mp-560163,Ca4Si2O7F2,4.678
mp-1227192,Ca4Si3(BO4)5,0.13140000000000018
mp-1197100,Ca4Si3H2O11,4.7011
mp-1202749,Ca4Si3O11,0.5254000000000001
mp-558268,Ca4Si6Pb6Cl2O21,3.3861
mp-1214557,Ca4Si6W3O19,0.07389999999999962
mp-1019576,Ca4SiN4,1.4498000000000002
mp-1214132,Ca4SiP4,1.1997000000000004
mp-6388,Ca4SmB3O10,4.3844
mp-1100361,Ca4Sn3S10,0.9459000000000004
mp-1046306,Ca4Sn5(TeO6)3,1.3655
mp-867030,Ca4Sn5S14,0.7490000000000001
mp-866871,Ca4SnS6,1.8132
mp-769317,Ca4Ta2O9,3.9211
mp-1046672,Ca4Te3W5O18,1.1540000000000004
mp-680711,Ca4Te5O14,2.8571
mp-676893,Ca4ThF12,5.5383
mp-534953,Ca4Ti3AlSi4O19F,2.9851
mp-15315,Ca4Ti3O10,2.5548
mp-1227165,Ca4Ti3Si4SnO20,3.0424
mp-1227317,Ca4Ti4Si3GeO20,2.9741000000000004
mp-1046360,Ca4Ti5(TeO6)3,0.046800000000000175
mp-568469,Ca4TiN4,1.5297999999999998
mp-1227137,Ca4TiSi4Sn3O20,3.1671
mp-1227293,Ca4Tl2CO9,1.4504
mp-1227091,Ca4UAl2(SiO5)3,0.12199999999999987
mp-1046662,Ca4V5(TeO6)3,0.15200000000000016
mp-1029737,Ca4VN4,0.12380000000000012
mp-743704,Ca4Y2Al7Cr2SiO24,0.4779999999999998
mp-1214020,Ca4YB3O10,4.4416
mp-650518,Ca4YFe5O13,1.0376000000000003
mp-1227080,Ca4Zn3Fe(SiO3)8,2.9004000000000003
mp-1227034,Ca4ZnCo(Si2O7)2,3.0472
mp-1227136,Ca4ZnFe3(SiO3)8,3.0797
mp-1029660,Ca4ZrN4,1.2352
mp-1227190,Ca4ZrTi3(GeO5)4,2.8403
mp-1227178,Ca4ZrTi3(SiO5)4,3.0211
mp-8439,Ca5(AlSb3)2,0.15559999999999974
mp-569383,Ca5(CoN2)2,0.35029999999999983
mp-1116857,Ca5(CrN3)2,0.7793000000000001
mp-29917,Ca5(CuO2)6,0.02870000000000017
mp-3080,Ca5(Ga3O7)2,3.0724
mp-17558,Ca5(GaAs3)2,0.10360000000000014
mp-1197278,Ca5(GeO5)2,0.5314
mp-1196062,Ca5(IO6)2,2.5923
mp-649479,Ca5(InSb3)2,0.22820000000000015
mp-1182052,Ca5(PO4)3,0.6014999999999997
mp-558966,Ca5(ReO6)2,2.1161000000000003
mp-1199479,Ca5(Si3O11)2,0.2907
mp-571333,Ca5(SiN3)2,2.1605
mp-18670,Ca5(SnAs3)2,0.24129999999999985
mp-578630,Ca51W12N56O3,1.7094
mp-703276,Ca5Al11TlSi13O48,0.4553
mp-677550,Ca5Al12Si12(AgO24)2,2.194
mp-866314,Ca5Al2(SiN4)2,2.7947999999999995
mp-17694,Ca5Al6O14,4.226
mp-1214089,Ca5As3CO12,0.6702000000000004
mp-1227203,Ca5As3ClO12,3.4944
mp-1227603,Ca5As3HO13,3.9052
mp-557482,Ca5As3O12F,3.9518
mp-1214218,Ca5As3O14,0.5998000000000001
mp-24436,Ca5As4(HO2)10,3.8236
mp-781865,Ca5BC4Cl3,0.7345999999999999
mp-1227157,Ca5Bi6(Cl3O2)4,3.0901
mp-1227139,Ca5Co3(SiO4)4,2.7293000000000003
mp-1196512,Ca5Cr3ClO12,0.9306
mp-1182459,Ca5Cr3O13,0.3414000000000001
mvc-13039,Ca5Cu2(RhO6)2,0.005199999999999871
mp-743698,Ca5Dy3Ti5Mn3O24,0.5324
mp-743624,Ca5DyTi5Fe(SiO5)6,2.6769000000000003
mp-744410,Ca5Gd3Ti5Mn3O24,0.9626
mp-774105,Ca5Ge3O11,3.3456
mp-31154,Ca5Hg3,0.002899999999999903
mp-743699,Ca5Ho3Ti5Mn3O24,0.5537000000000001
mp-686434,Ca5Mg5P5O21F4,0.8222
mvc-13112,Ca5Mn2(NiO6)2,0.023600000000000062
mp-767184,Ca5Mn4O9,2.0514
mp-767043,Ca5Mn8O13,0.6094999999999997
mp-767160,Ca5MnO6,2.9678
mp-651786,Ca5MnSi9(Pb3O11)3,2.8158
mvc-12279,Ca5Nb4(CoO9)2,1.2839
mp-675101,Ca5NbN5,0.7167000000000003
mp-1214051,Ca5P3CO12,0.4696999999999996
mp-555164,Ca5P3ClO12,5.4052
mp-41472,Ca5P3HO13,5.1982
mp-6473,Ca5P3O12F,5.5148
mp-1227239,Ca5P3O13,0.4940999999999998
mp-28879,Ca5P8,1.1418000000000004
mp-1214204,Ca5S3O12F,0.2782
mvc-13126,Ca5Sc2(CoO6)2,1.3089
mp-1227400,Ca5Si(PO6)2,4.792599999999998
mp-6753,Ca5Si2C2O13,4.790699999999998
mp-6796,Ca5Si2CO11,4.6044
mp-695314,Ca5Si2HO9F,2.9067000000000003
mp-6607,Ca5Si2SO12,4.4382
mp-1214016,Ca5Sn3,0.02090000000000014
mp-1100378,Ca5Sn3S11,1.9495
mp-769610,Ca5Ta4O15,3.2814
mp-720394,Ca5TaTi3Al(SiO5)5,2.8624
mp-559210,Ca5Te3O14,1.6785
mp-675846,Ca5ThF14,4.84
mp-720340,Ca5Ti3NbAl(SiO5)5,2.9144000000000005
mp-1227225,Ca5TiSn4(BO3)10,3.0931999999999995
mp-1214147,Ca5V3CO12,0.6184000000000003
mp-1202595,Ca5V3ClO12,3.7922
mp-565819,Ca5V3O12F,3.868500000000001
mp-1214138,Ca5V3O13,0.5764
mp-567141,Ca5W(N2O)2,2.3480000000000003
mp-778915,Ca5W3O14,2.3675
mp-743716,Ca5Y3Ti5Mn3O24,0.5491000000000001
mp-698722,Ca5Yb3Ti5Mn3O24,0.4278
mp-1203446,Ca5Zr3F22,5.2994
mp-1227668,Ca5Zr4Ti(GeO5)5,3.1026
mp-1229248,Ca65Ga24Sn19,0.1482000000000001
mp-1227858,Ca6Al2Fe4O15,0.7323000000000004
mp-1227210,Ca6Al3(Si4N9)2,0.1233000000000004
mp-677618,Ca6Al6Si3(HO12)2,0.38170000000000015
mp-1227232,Ca6Al7ClO16,3.7915
mp-1227337,Ca6Al7O16F,3.8741
mp-1227522,Ca6AlCr3(SiO4)6,3.3078000000000003
mp-1182709,Ca6As4PO35,0.07510000000000003
mp-1227023,Ca6Br2N3Cl,2.502
mp-1227118,Ca6Co3RhO12,0.12099999999999955
mp-1227494,Ca6Fe(CoO4)3,1.1233
mp-686681,Ca6Ga6Si3(HO12)2,0.3997999999999999
mp-17875,Ca6GaN5,0.8124000000000002
mp-1019564,Ca6Ge2O,0.2902
mp-558489,Ca6Hf19O44,4.130800000000002
mp-755421,Ca6HfO8,4.1479
mp-720199,Ca6La14Mg7Ti13O60,1.1974
mp-738745,Ca6La4Ti5Cr5O30,0.1654
mp-1227904,Ca6Mg2Co(AsO5)6,0.4793
mp-699405,Ca6Mg5Al2Si11O36,4.8512
mp-17577,Ca6MnN5,0.7347000000000001
mp-1227024,Ca6Sc(CoO4)3,0.5871
mp-697022,Ca6Si2H6O13,3.4957
mp-1214120,Ca6Si2O13,0.1943
mp-554539,Ca6Si3H2O13,4.47
mp-1202523,Ca6Si3O13,0.3337999999999999
mp-1183664,Ca6Si6H2O19,4.4785
mp-1200566,Ca6Si6O19,0.5791
mp-989590,Ca6Sn2NF,0.1352000000000002
mp-1204949,Ca6Te5N2O21,2.7141
mp-693358,Ca6Ti5AlSi6O29F,2.4854000000000003
mp-695616,Ca6TiAl5Si6(O5F)5,2.8637999999999995
mp-1227714,Ca6V3Fe7O24,1.8621
mp-984055,Ca7(H6Cl)2,3.7127
mp-1203093,Ca7(Si2O5)8,0.6992
mp-570555,Ca7GeN6,2.2318
mp-744008,Ca7La3Ti5Cr5O30,0.025900000000000038
mp-1076526,Ca7Mg(Co2O5)4,0.005399999999999849
mp-567722,Ca7NbSi2N9,1.9855
mp-542863,Ca7NbSi4O17F,3.5274
mp-1227284,Ca7Si6CO23,0.010199999999999987
mp-733443,Ca7Si6H4CO23,4.581099999999998
mp-1029474,Ca7SiN6,1.8303
mp-866870,Ca7Sn3S13,2.1028999999999995
mp-1227241,Ca8Al3(FeO4)5,1.8664
mp-1227544,Ca8Al9Fe3Si12(HO13)4,2.5731
mp-707409,Ca8Bi12O25,0.7670000000000003
mvc-12302,Ca8Cr(PO4)7,0.053200000000000136
mp-1227452,Ca8Fe5(WO8)3,0.09060000000000024
mp-530696,Ca8H3N4,0.4756
mp-744914,Ca8MgAl6Si5O28,2.9092
mp-686598,Ca8MgSi4(ClO8)2,0.8441000000000001
mp-1214022,Ca8Mo7O20,1.1020999999999992
mp-1228814,Ca8ScFe7(SiO3)20,1.1073999999999995
mp-1227334,Ca8Si4(O5F)3,0.1442000000000001
mp-1019570,Ca8Si5O18,4.545
mp-743771,Ca8V7ZnBiO28,3.4528
mp-1227259,Ca8Zn3Co(Si2O7)4,3.0404
mp-1227205,Ca8Zn4Si3Ge5O28,3.2824000000000004
mp-1227193,Ca8ZnCo3(Si2O7)4,2.9988
mp-1182427,Ca9(Si3O16)2,0.040399999999999985
mp-1178586,Ca9(WO3)20,0.3511999999999995
mp-569892,Ca9B2(CCl2)4,1.3725999999999998
mp-30446,Ca9Cd4Bi9,0.07719999999999994
mp-851050,Ca9Co(PO4)7,0.8428000000000002
mp-565894,Ca9Cr(PO4)7,2.8836000000000004
mp-566672,Ca9Fe(PO4)7,2.2467000000000006
mp-555661,Ca9In(PO4)7,4.3214
mp-782009,Ca9La5Br33,2.9651
mp-782047,Ca9La5Cl33,3.6799
mp-1228104,Ca9Nb2Ga10(SiO7)6,0.04179999999999984
mp-531110,Ca9PrF20,0.021300000000000097
mp-1227767,Ca9Si4O17F,0.7047999999999999
mp-1214849,Ca9Si6(WO7)4,1.6796000000000002
mp-5615,CaAgAs,0.019599999999999614
mp-1213950,CaAgAsO4,1.3573999999999995
mvc-5380,CaAgAsO5,0.6075999999999999
mp-1044106,CaAgBiO5,0.9933
mp-12277,CaAgP,0.0045000000000001705
mp-1182082,CaAl(OF2)2,0.2029
mp-1227489,CaAl12O19,4.348
mp-560993,CaAl12Si4O27,5.236199999999998
mp-1191489,CaAl2(OF)4,0.20130000000000006
mp-1190607,CaAl2(OF3)2,0.5901
mp-1227927,CaAl2(Si2O7)2,0.1767
mp-1203968,CaAl2(Si2O7)3,0.4149000000000001
mp-1229169,CaAl2(Si8O19)2,1.1076
mp-6532,CaAl2(SiO4)2,4.945
mp-1214062,CaAl2(SiO4)3,0.4482999999999999
mp-1182213,CaAl2(SiO6)2,0.6224
mp-557689,CaAl2B2O7,4.8231
mp-1227363,CaAl2F10,0.4823999999999997
mp-1213962,CaAl2F8,7.2199
mp-707040,CaAl2H16N9,1.1488
mp-1215043,CaAl2O12,0.2564000000000002
mp-2963,CaAl2O4,4.3446
mp-643941,CaAl2Si(HO2)4,4.6907999999999985
mp-24603,CaAl2Si2(H2O5)2,5.0625
mp-1215070,CaAl2Si2(WO4)2,0.7341000000000002
mp-1214006,CaAl2Si2HO9,0.12170000000000016
mp-1194858,CaAl2Si3(HO3)4,4.8919999999999995
mp-707746,CaAl2Si3H6O13,4.9624
mp-1195158,CaAl2Si3O10,4.5351
mp-1202493,CaAl2Si3O13,0.556
mp-1214322,CaAl2Si3W3O10,0.17860000000000031
mp-1227752,CaAl2Si4(ClO4)3,0.08379999999999999
mp-706640,CaAl2Si4(H2O7)2,0.1098
mp-1214076,CaAl2Si4(HO6)2,2.9760000000000004
mp-1227551,CaAl2Si4O15,0.1498
mp-1214101,CaAl2Si6(HO4)4,2.3687
mp-1214127,CaAl2Si6H10O21,5.1314
mp-1019584,CaAl2SiO6,4.605699999999999
mp-4867,CaAl4O7,3.9982
mp-24469,CaAl4Si2(HO6)2,4.5346
mp-1226904,CaAl4Si2O11,5.0869
mp-1194752,CaAl6H12(SO7)4,5.571999999999999
mp-556532,CaAlB3O7,5.3801999999999985
mp-559759,CaAlBO4,4.6961
mp-1192520,CaAlCuSi2O9,0.07840000000000003
mp-8836,CaAlF5,7.1524
mp-1214299,CaAlFe3O7,1.6920000000000006
mp-966582,CaAlH5,2.8366
mp-568177,CaAlSiH,0.3700000000000001
mp-24402,CaAlSiHO5,5.242800000000001
mp-6873,CaAlSiO4F,5.2058
mp-1213985,CaAlSiO5,0.3693999999999997
mp-24359,CaAs(HO)7,4.1423
mp-24364,CaAs2(HO2)4,3.7749
mp-557180,CaAs2(XeF5)4,2.5746999999999995
mp-1213993,CaAs2F12,4.8261
mp-758814,CaAs2H6F18,4.9837
mp-778977,CaAs2HF13,4.8522
mp-1043068,CaAs2WO7,3.075
mp-1227150,CaAs3F15,4.8892
mp-721328,CaAsH3O5,3.9496
mp-24120,CaAsH5O6,4.0367
mp-1191517,CaAsO4,0.057700000000000085
mp-1198781,CaAsO5,2.0417
mp-1214130,CaAsO6,0.3980000000000001
mp-1215135,CaAsO7,1.0625
mp-28763,CaAsPd,0.16080000000000005
mvc-5804,CaAsWO5,2.4346
mp-1238166,CaB12(H3O)8,1.1297
mp-699475,CaB12(H3O2)4,0.15670000000000006
mp-696618,CaB2(H2O3)2,5.5553
mp-1103502,CaB2(H5N)2,3.8144
mp-554736,CaB2(H6O5)2,5.4565
mp-866308,CaB2(H7N)2,5.694699999999999
mp-1199389,CaB2(HO)8,5.3483
mp-12146,CaB2F8,8.3113
mp-1198143,CaB2H10O,5.4184
mp-24065,CaB2H10O9,5.2523
mp-1197534,CaB2H13N3,4.4976
mp-1182308,CaB2O9,0.027100000000000013
mp-733877,CaB3H13O12,5.219600000000002
mp-722262,CaB3H3O7,5.7435
mp-560899,CaB3H5O8,5.5945
mp-720430,CaB3H7O9,5.4108
mp-1194867,CaB3HO6,5.6203
mp-1182657,CaB3O10,0.3738999999999999
mp-1197422,CaB3O8,0.4011
mp-1201177,CaB4(H10N)2,5.5651
mp-556214,CaB4O7,5.6352
mp-757666,CaB5H3O10,5.1418
mp-1214219,CaB5H4O9,1.9356
mp-1198301,CaB6(H4O7)2,5.0941
mp-23701,CaB8H4O15,5.5185
mp-1084760,CaBO3,0.4137
mp-6667,CaBPO5,5.317
mp-6772,CaBe2(PO4)2,5.8263
mp-1048770,CaBe3Co2(SiO4)3,2.8321000000000005
mp-754739,CaBe3O4,3.9115
mp-554315,CaBeB2O5,5.6922000000000015
mp-6899,CaBePO4F,6.1019
mp-1200025,CaBePO5,0.5630999999999999
mp-556411,CaBi2(CO4)2,1.4708999999999994
mp-557371,CaBi2B2O7,3.1706
mp-1044825,CaBi2P2O9,2.7132
mp-1041219,CaBi3P3O13,2.8689999999999998
mp-1041411,CaBi4O9,0.7755000000000005
mp-556615,CaBi6(PO5)4,3.5287
mp-1047018,CaBiAsO5,2.1407000000000003
mvc-11848,CaBiAsO6,0.5539999999999998
mp-631550,CaBiB,0.08210000000000006
mp-556666,CaBiCO4F,2.2216
mp-553025,CaBiClO2,3.6207
mvc-13928,CaBiF5,3.9935
mvc-13472,CaBiF6,0.07800000000000007
mp-1227238,CaBiIO2,1.9389
mp-1227260,CaBiNO5,2.2944
mp-755893,CaBiO3,0.5783000000000005
mp-1042360,CaBiSbO5,2.3346
mp-1042689,CaBiWO5,1.5585999999999998
mp-22888,CaBr2,4.5304
mp-917,CaC2,2.1121000000000003
mp-1200920,CaC2(NO)2,3.8272
mp-11009,CaC2(SN)2,3.3977
mp-1214028,CaC2O5,0.6355999999999999
mp-39536,CaC2S2(OF)6,5.9997
mp-4124,CaCN2,3.5804
mp-3953,CaCO3,4.9994999999999985
mp-1214358,CaCO4,0.4442
mp-1227329,CaCd(CO3)2,3.3748
mp-1204540,CaCd(NO3)4,1.0019
mp-1227264,CaCd(WO4)2,3.2204
mp-1193522,CaCd2(ClO)6,0.7995
mp-760403,CaCd3O4,0.19190000000000015
mp-1229298,CaCd6,0.03560000000000008
mp-1093688,CaCdAg2,0.5781000000000001
mp-16258,CaCdGe,0.0032999999999998586
mp-753287,CaCdO2,0.3799000000000001
mp-1213987,CaCdP2O7,3.6761
mp-1227235,CaCdS2,2.2356000000000003
mp-1227464,CaCe3V4O16,0.02700000000000013
mp-1229253,CaCe4Si3O13,0.11440000000000072
mp-1201269,CaCeAl2FeSi3O13,0.2199
mp-1214122,CaCeAlFe2Si3O13,0.32679999999999954
mp-662583,CaCeC2O6F,0.0032000000000005357
mp-1227511,CaCeMnO4,0.0005999999999994897
mp-1227227,CaCeN2,0.3912000000000005
mp-756365,CaCeO3,2.3372999999999995
mp-1227255,CaCeV2O8,1.5117
mp-1183614,CaCeZn2,0.03849999999999998
mp-22904,CaCl2,5.3548
mp-27546,CaClF,5.6702
mp-1077231,CaClO,0.6586
mp-1043203,CaCo(GeO3)2,1.935
mp-1045787,CaCo(PO3)4,3.0923
mp-1043607,CaCo(Si2O5)2,2.6854
mp-18894,CaCo(SiO3)2,2.6563
mvc-10489,CaCo2(CuO4)2,0.03790000000000005
mvc-12763,CaCo2(P2O7)2,0.4995000000000001
mvc-10037,CaCo2(PO4)2,2.6149
mvc-11818,CaCo2(SiO3)4,1.3511000000000002
mvc-11964,CaCo2O5,0.2712000000000001
mp-646538,CaCo2Te3(ClO4)2,2.6009
mp-505175,CaCo3(P2O7)2,2.8718000000000004
mp-1227278,CaCo3(SiO3)4,2.3169
mp-1042545,CaCo3O7,0.24750000000000005
mp-1047893,CaCo3P3O13,0.4817
mvc-2601,CaCo5O7,0.1750999999999996
mp-1042739,CaCoAs2O7,2.1148
mp-510721,CaCoAsHO5,2.0447999999999995
mvc-5656,CaCoAsO5,0.9983