task_id,pretty_formula,band_gap
mp-1201335,LaNb2CuBrO7,0.15839999999999987
mp-1198693,LaNb2CuClO7,0.21350000000000025
mp-757457,LaNb3O9,1.6303
mp-28155,LaNb5O14,2.1536
mp-29183,LaNb7O12,0.4455
mp-28200,LaNb7O19,2.126
mp-5295,LaNbO4,3.9345
mp-557784,LaNbTeO6,3.2978
mp-1222894,LaNd3(GaO3)4,3.4619
mp-1222944,LaNd3Cr4O12,2.2987
mp-1222928,LaNdMn2O6,0.059899999999999835
mp-1222795,LaNdN2,0.2866
mp-1222852,LaNdZr2O7,3.4945
mp-2708,LaNi2,0.050100000000000484
mp-2764,LaNi3,0.018299999999999983
mp-1206559,LaO2,0.030499999999999968
mp-1078452,LaO3,0.5851999999999999
mp-7100,LaOF,4.574999999999998
mp-2804,LaP2,0.5579999999999998
mp-696087,LaP2H2O9,0.7138
mp-1225035,LaP2H44C14N7(Cl2O)2,3.696
mp-740930,LaP3(HO)6,1.2893
mp-697701,LaP3H8O7,4.8244
mp-1213236,LaP3O14,0.6041
mp-1192037,LaP3O7,2.6822000000000004
mp-1864,LaP5,0.11029999999999962
mp-565354,LaP5Cl18O17,3.454
mp-1204624,LaP5O14,5.000299999999998
mp-200,LaP7,0.8670999999999998
mp-3962,LaPO4,4.5203000000000015
mp-1191492,LaPS,0.3415999999999997
mp-560571,LaPS4,2.4274
mp-1222782,LaPaO4,2.342999999999999
mp-560665,LaPb6BrO7,1.9305
mp-556523,LaPb6ClO7,2.1393000000000004
mp-1225594,LaPbNO5,2.3646
mp-1222864,LaPr3(GaO3)4,3.3499
mp-1222844,LaPr3Al4O12,3.900300000000001
mp-1222955,LaPrCr2O6,2.2219
mp-1203779,LaRe3O16,0.5310999999999999
mp-1002107,LaRh,0.08119999999999994
mp-5163,LaRhO3,0.5939999999999994
mp-20472,LaRuO3,0.008000000000000007
mp-1508,LaS2,0.6312999999999995
mp-1211452,LaSBr,2.5806000000000004
mp-772534,LaSCl,2.4524
mp-559820,LaSClO4,4.0747
mp-5394,LaSF,1.4811999999999994
mp-1211464,LaSI,2.1861999999999995
mp-28626,LaSO,1.522899999999999
mp-1193569,LaSO5,0.7829000000000002
mp-680334,LaSb(SBr)2,2.1022000000000003
mp-31419,LaSb5O12,3.0498000000000003
mp-566951,LaSbMo2O9,3.2772999999999994
mp-1190427,LaSbO4,2.9983000000000004
mp-1095714,LaSbPd2,0.3064999999999998
mp-1101891,LaSbSe,0.3870999999999993
mp-1222966,LaSbSe3,0.9751000000000004
mp-6217,LaSc3(BO3)4,4.2334
mp-31116,LaScO3,3.8831000000000007
mp-1190131,LaScS3,1.6540999999999997
mp-570668,LaSe2,0.2386999999999997
mp-1203318,LaSe2O9,0.0345
mp-1102246,LaSeCl,1.3339000000000008
mp-7738,LaSeF,1.7260999999999995
mp-555955,LaSeO3F,3.7498
mp-1222829,LaSeS,0.04210000000000047
mp-1019967,LaSi3N5,3.1935
mp-1222841,LaSiBO5,4.284300000000001
mp-541995,LaSiO3F,4.5981000000000005
mp-1232374,LaSiP3,0.5033000000000003
mp-1075930,LaSm(CoO3)2,0.5005999999999995
mp-1222895,LaSm3(FeO3)4,1.4735999999999994
mp-1222968,LaSm3Cr4O12,2.351
mp-1222961,LaSm3O6,3.7731
mp-1076759,LaSmCo2O5,0.5165000000000006
mp-1222850,LaSmCr2O6,2.3177000000000003
mp-1076810,LaSmNi2O5,0.5480999999999998
mp-778450,LaSmO3,4.243500000000001
mp-17370,LaSn2Rh,0.01909999999999989
mp-18566,LaSnF7,5.202999999999999
mp-1222747,LaTa2AgO7,1.5464000000000002
mp-776407,LaTa2NO5,2.3446
mp-757365,LaTa3O9,2.3038
mp-14485,LaTa7O19,3.1166
mp-1222976,LaTaBi2O7,2.1127
mp-1040853,LaTaCrO6,0.18080000000000007
mp-989620,LaTaN3,0.4970999999999997
mp-4421,LaTaO4,3.4680000000000004
mp-1222878,LaTaTiO6,2.9294
mp-1049235,LaTaZnCrO6,1.8525
mp-1044107,LaTaZnFeO6,2.6454000000000004
mp-1190489,LaTb2RuO7,0.2416999999999998
mp-1222843,LaTb3(Mo2O7)2,0.06879999999999953
mp-571576,LaTe2,0.11350000000000016
mp-10383,LaTeAs,0.12230000000000008
mp-1103189,LaTeCl,0.8772000000000002
mp-1223007,LaTh4OF19,1.1688
mp-1222718,LaTi2TlO6,0.29389999999999983
mp-1211635,LaTi3(BiO4)3,2.2474
mp-1223983,LaTi6(PO4)9,2.4637
mp-1223128,LaTi6Bi7O24,2.4286000000000003
mp-22621,LaTiAgO4,1.465
mp-686726,LaTiAlPbO6,1.8576000000000008
mvc-11948,LaTiCrO6,0.21450000000000014
mp-556399,LaTiI5O16,2.8573
mp-1222738,LaTiNO2,1.3118999999999996
mp-636654,LaTiNbBi2O9,1.7236000000000002
mp-1222933,LaTiNbO6,2.8184
mp-1222719,LaTiSbO6,2.7279
mp-1044950,LaTiZnCrO6,2.3718999999999992
mvc-8970,LaTiZnFeO6,2.2913
mp-1195614,LaTl(PS3)2,2.4748
mp-1195547,LaTl(PSe3)2,1.7674999999999996
mp-1211739,LaTl(WO4)2,2.6612
mp-1190334,LaTl2P2S7,2.0418000000000003
mp-1204033,LaTlGeSe4,1.4176000000000002
mp-13374,LaTmO3,4.414
mp-556841,LaTmS3,0.8731
mp-1222712,LaV2BiO8,3.2196
mp-1196184,LaV2IO9,2.5485
mp-32481,LaV3O9,2.5700000000000003
mp-1180989,LaV3TeO15,0.0013999999999999846
mp-1040826,LaVCrO6,0.3919000000000006
mp-1201992,LaVH2I4O15,2.8736999999999995
mp-989403,LaVN3,0.5716999999999999
mp-19350,LaVO3,0.9979999999999992
mp-19162,LaVO4,3.1222000000000003
mp-1044931,LaVZnCrO6,1.5343
mp-1044032,LaVZnFeO6,0.7334999999999994
mp-565839,LaWClO4,3.1704
mp-989524,LaWN3,1.2220000000000004
mp-1222847,LaY3Sc4O12,4.2086000000000015
mp-1222804,LaY3Ti4O14,2.7334
mp-1097297,LaYIr2,0.5874000000000001
mp-10429,LaYO3,4.3416000000000015
mp-1200447,LaYS3,0.7904
mp-1019968,LaZn(BO2)5,4.7136
mp-1093913,LaZnAg2,0.054600000000000204
mp-1222706,LaZnAgAs2,0.2450000000000001
mp-1222704,LaZnAgP2,0.6047000000000002
mp-1049221,LaZnCr2O6,0.5206999999999997
mp-1049286,LaZnCrBiO6,0.8994999999999997
mp-1044021,LaZnCrFeO6,0.7851000000000008
mp-1049240,LaZnCrMoO6,1.4599000000000002
mp-1049202,LaZnCrSnO6,2.2934
mp-1049246,LaZnCrWO6,1.8891
mp-1222744,LaZnCuP2,0.18299999999999986
mp-1044078,LaZnFeAgO6,0.1311
mp-1044050,LaZnFeCuO6,0.0021999999999993136
mp-1044082,LaZnFeMoO6,1.7031999999999998
mp-1044018,LaZnFeSbO6,1.1670999999999996
mp-1044024,LaZnFeSnO6,2.2267
mp-1044069,LaZnFeWO6,2.2058
mp-7060,LaZnPO,0.6563000000000008
mp-1192580,LaZr2F11,5.739800000000002
mp-1211385,LaZrF7,6.0431
mp-1222900,LaZrNO2,1.7332
mp-1222999,LaZrTa3O11,3.3315999999999995
mp-1211289,Li(BH)3,4.7144
mp-941221,Li(BH)5,4.9946
mp-1198726,Li(BH)6,5.6148
mp-1001079,Li(CN)2,1.8775
mp-546920,Li(CO)2,2.2184
mp-774082,Li(CoO2)2,0.6284000000000001
mp-690149,Li(CoO2)8,0.11389999999999988
mp-1178116,Li(Fe2O3)4,0.8239000000000001
mp-25576,Li(MoO2)2,1.4956999999999998
mp-1212055,Li(MoO2)3,0.05079999999999973
mp-580783,Li(MoO3)3,0.37960000000000016
mp-1103933,Li(MoSe)3,0.8114999999999997
mp-1196908,Li(NdGe)4,0.055799999999999635
mp-774941,Li(NiO2)2,0.7825000000000002
mp-1222821,Li(NiO2)3,0.8328000000000002
mp-1197150,Li(PrGe)4,0.05740000000000034
mp-1180693,Li(SeO3)2,0.3337000000000001
mp-1206227,Li(YSe2)3,0.05799999999999982
mp-23122,Li10B14Cl2O25,6.4258000000000015
mp-28989,Li10BrN3,1.3667
mp-763575,Li10Co(SiO5)2,1.9409
mp-769555,Li10Co3Ni7O20,0.21409999999999973
mp-1185179,Li10Co4O9,1.4182
mp-765279,Li10CoNi9O20,0.4780000000000007
mp-767255,Li10Cr(SiO5)2,0.8188
mp-1178099,Li10Cr3Fe3(NiO8)2,1.6727
mp-756983,Li10Cu(SiO5)2,0.3317000000000001
mp-762565,Li10Fe(SiO5)2,1.7148
mp-774318,Li10Fe3Co3(NiO8)2,0.7782999999999998
mp-771052,Li10Fe3Ni7O20,0.3689999999999998
mp-770854,Li10Fe3Sb7O24,1.0320999999999998
mp-763869,Li10Fe5Co3O16,0.6031
mp-770651,Li10Fe9CoO20,0.22940000000000005
mp-764262,Li10FeCo9O20,0.1145999999999998
mp-632815,Li10Ge(PO6)2,4.4932
mp-696138,Li10Ge(PS6)2,2.3653
mp-721239,Li10Ge(PSe6)2,1.3131000000000002
mp-850147,Li10Mg12Fe(PO4)12,4.4803
mp-530738,Li10Mg7Cl24,4.438599999999999
mp-849242,Li10Mn(SiO5)2,0.9875999999999998
mp-777706,Li10Mn2Fe3Co3O16,0.7412999999999998
mp-764933,Li10Mn2Fe3Ni3O16,0.4318
mp-765364,Li10Mn2V3Cr3O16,1.8132999999999997
mp-779223,Li10Mn3Co2Ni3O16,0.06680000000000019
mp-778885,Li10Mn3Cr2Ni3O16,0.3721999999999999
mp-780494,Li10Mn3Cr3(CoO8)2,0.9534000000000002
mp-777601,Li10Mn3Cr3(FeO8)2,1.0297
mp-774408,Li10Mn3Cr3(NiO8)2,1.0054000000000003
mp-765030,Li10Mn3Cr5O16,0.1735000000000002
mp-778351,Li10Mn3F16,3.3565
mp-764265,Li10Mn3V5O16,0.2265999999999999
mp-765033,Li10Mn5Fe3O16,0.7386999999999997
mp-1185196,Li10Ni4O9,1.6628
mp-1178101,Li10Sc9Fe(SiO3)20,3.0449
mp-721255,Li10Si(PO6)2,5.1063
mp-720509,Li10Si(PS6)2,2.5638
mp-721253,Li10Si(PSe6)2,1.4633
mp-769428,Li10Si2NiO10,2.5404
mp-553950,Li10Si2PbO10,2.9603
mp-721238,Li10Sn(PO6)2,3.2726
mp-721236,Li10Sn(PS6)2,2.339
mp-721252,Li10Sn(PSe6)2,1.3659
mp-767498,Li10Ti11Nb6O42,2.1918
mp-778830,Li10Ti2Fe3Co3O16,1.4660999999999995
mp-774319,Li10Ti2Fe3Ni3O16,1.5530000000000002
mp-777713,Li10Ti2Mn3Ni3O16,0.42710000000000026
mp-774315,Li10Ti3Co3(NiO8)2,0.8922000000000003
mp-765769,Li10Ti3Mn5O16,0.8626999999999998
mp-772260,Li10Ti4O13,3.9595
mp-765994,Li10V(SiO5)2,0.9505
mp-764096,Li10V3Cr5O16,0.4622999999999999
mp-764037,Li10V5Cr3O16,1.1298000000000004
mp-1147698,Li10Zn(PS4)4,2.8516
mp-768947,Li10Zn3(GeO4)4,3.1107
mp-3297,Li10Zn4O9,2.329
mp-1147630,Li10Zn7(PS4)8,2.6864000000000003
mp-769483,Li11(CoO4)2,0.2894000000000001
mp-1223041,Li11(MoO2)12,0.41339999999999977
mp-775324,Li11Co12(PO4)12,0.006800000000000139
mp-769470,Li11Fe(WO4)7,2.8156
mp-769446,Li11Fe12(BO3)12,1.0162999999999998
mp-694909,Li11Fe3B24(PbO24)2,1.1731000000000005
mp-1178085,Li11Fe5(OF11)2,2.2923
mp-776808,Li11Fe6F29,3.2092
mp-579161,Li11La12Fe3O28,2.3348000000000004
mp-780145,Li11Mn6O16,0.4358
mp-769524,Li11Nb4(Ni3O8)3,1.2260999999999995
mp-695286,Li11Sc7Ti(PO4)12,2.5182
mp-765649,Li11Ti12(NiO8)4,0.03310000000000013
mp-769463,Li11Ti8Fe5O32,0.15249999999999986
mp-675818,Li11TiAs5,0.2806000000000002
mp-676324,Li11TiP5,0.3650000000000002
mp-677323,Li11TiSb5,0.09020000000000028
mp-766109,Li11V12(CoO8)4,1.0219000000000005
mp-762453,Li11V16O32,0.9520000000000004
mp-850254,Li11V6O5F19,0.8712
mp-849384,Li11V8(PO4)12,0.7162999999999999
mp-767750,Li12Co3NiP4(CO7)4,2.84
mp-767857,Li12CoNi3P4(CO7)4,2.9723000000000006
mp-1178129,Li12Cr3CoP4(CO7)4,1.4402999999999997
mp-767736,Li12Cr3FeP4(CO7)4,2.4471
mp-1178088,Li12Cr3NiP4(CO7)4,2.0605
mp-764428,Li12Cr5O16,0.5859999999999999
mp-767859,Li12CrCo3P4(CO7)4,1.2044
mp-767748,Li12CrFe3P4(CO7)4,2.4315999999999995
mp-770660,Li12CrGa11O24,1.3461
mp-1178083,Li12CrNi3P4(CO7)4,1.9746
mp-1178117,Li12Fe3CoP4(CO7)4,2.5784
mp-767852,Li12Fe3NiP4(CO7)4,3.1360999999999994
mp-767731,Li12FeNi3P4(CO7)4,3.0772000000000004
mp-775195,Li12Mn11Fe(PO4)12,3.6905
mp-762410,Li12Mn2O9,0.9503
mp-1178081,Li12Mn3CoP4(CO7)4,2.1864000000000003
mp-767734,Li12Mn3CrP4(CO7)4,2.3728
mp-767262,Li12Mn3FeP4(CO7)4,3.6464
mp-1178080,Li12Mn3NiP4(CO7)4,2.8961
mp-1178084,Li12Mn3V5(PO4)12,0.4315000000000002
mp-767666,Li12Mn3VP4(CO7)4,2.6856
mp-1178138,Li12Mn7V(PO4)12,0.5488
mp-767749,Li12MnCo3P4(CO7)4,2.0062
mp-1178079,Li12MnCr3P4(CO7)4,2.5460000000000003
mp-767694,Li12MnFe3P4(CO7)4,3.64
mp-767698,Li12MnNi3P4(CO7)4,2.736
mp-861700,Li12MnV3P4(CO7)4,2.7205
mp-781130,Li12MnV7(PO4)12,0.1814
mp-1199885,Li12Mo5O17,1.3086999999999995
mp-767604,Li12Nb14ZnO42,3.2580000000000005
mp-763296,Li12Ni11O28,0.8900999999999999
mp-767842,Li12V3CoP4(CO7)4,0.8535999999999997
mp-767729,Li12V3CrP4(CO7)4,1.9742
mp-767693,Li12V3FeP4(CO7)4,2.6919
mp-1178087,Li12V3NiP4(CO7)4,1.7633000000000003
mp-767844,Li12VCo3P4(CO7)4,0.7799000000000005
mp-767735,Li12VCr3P4(CO7)4,1.9837
mp-767730,Li12VFe3P4(CO7)4,2.6420000000000003
mp-767733,Li12VNi3P4(CO7)4,1.5977
mp-768062,Li13Co15O28,0.03799999999999981
mp-764770,Li13Mn2O9,0.010199999999999987
mp-765323,Li13Mn3(SbO8)2,1.1465
mp-764234,Li13Mn3Nb2O16,1.0313
mp-777360,Li13V24O52,0.5977000000000001
mp-768268,Li14Co2S9,0.5308999999999999
mp-504263,Li14Co9(P2O7)8,2.4204000000000003
mp-542789,Li14Cr2N8O,2.4159999999999995
mp-762949,Li14Cr9(P2O7)8,2.6039999999999996
mp-762439,Li14Cu9(P2O7)8,0.2938000000000001
mp-781016,Li14Fe4O13,2.3295
mp-1222798,Li14MgSi4,0.2285000000000001
mp-770530,Li14Mn2O9,2.5939
mp-756198,Li14Mn2S9,1.7707
mp-764848,Li14Mn5F24,3.5262
mp-705402,Li14Mn9(P2O7)8,4.0028
mp-1223420,Li14Nd5Si11N19O7F2,2.7518
mp-540237,Li14Ni9(P2O7)8,3.6498
mp-1020011,Li14P2(N2O)3,3.5921
mp-863364,Li14Sn9(P2O7)8,2.9789000000000003
mp-765044,Li14V9(P2O7)8,2.6486
mp-762434,Li15(FeO6)2,0.011299999999999977
mp-25257,Li15Bi4(PdO10)2,0.034200000000000015
mp-861689,Li15Cr15SiO32,1.6393
mp-530262,Li15Cr2N9,1.3186
mp-1178074,Li15Fe15SiO32,1.8233
mp-1201065,Li15H9N8,2.3545
mp-868673,Li15Mn15SiO32,0.3111999999999999
mp-765382,Li15Mn8P8(O4F)8,0.22079999999999989
mp-767393,Li15Ti11Nb5O42,2.2795
mp-1178192,Li15V6(P8O29)2,1.0499
mp-774800,Li15Zr7(Cu3O14)2,0.01889999999999992
mp-761343,Li16Fe4SiO16,2.1387
mp-765282,Li16Mn15(CuO12)3,0.3174000000000001
mp-850169,Li16Mn15Fe(PO4)16,3.4633000000000003
mp-6031,Li16Nb2N8O,3.3829
mp-14871,Li16Ta2N8O,3.4017
mp-775681,Li16V3Ga13O32,1.5151
mp-763627,Li17(Co4O9)2,0.9237
mp-1172980,Li17(CoO4)3,0.26269999999999993
mp-771225,Li17(CoO4)4,0.7742
mp-705832,Li17(WO3)19,0.7975999999999996
mp-849476,Li17Ag12F29,1.4135
mp-849673,Li17Cr2O12,0.7621
mp-1178092,Li17Fe4(CO3)16,0.015
mp-530514,Li17Nb18O54,3.3221
mp-767977,Li17Ni11O28,0.4604999999999997
mp-574275,Li17Pb4,0.02629999999999999
mp-761629,Li17V16O32,0.6445999999999996
mp-771227,Li19(CoO4)4,0.2900999999999999
mp-530480,Li19(FeAs)20,0.0007000000000001451
mp-763743,Li19Cr4P8O35F,1.7946999999999995
mp-1178065,Li19Mn4P8O35F,0.3296000000000001
mp-1178086,Li19Mn8C16(SO16)4,0.0948
mp-1223171,Li19V12O32,0.6454
mp-1178191,Li19V8(BO3)16,0.5451000000000001
mp-1210701,Li2(BH)11,3.9794
mp-1210763,Li2(BH)7,4.521
mp-763622,Li2(CoO2)3,1.0537
mp-705827,Li2(NiO2)21,1.0205
mp-762915,Li2(NiO2)3,0.5394999999999999
mp-762387,Li2(NiO2)5,0.6866999999999996
mp-705640,Li20Co21O40,0.5469999999999997
mp-1040451,Li20Si3P3S23Cl,2.4202
mp-850944,Li21(Co4O9)2,0.9552
mp-850954,Li21(CoO4)4,0.6188
mp-769519,Li21(FeO4)4,1.4195
mp-698569,Li21Mo11O32,0.008500000000000618
mp-1212343,Li22(Cu3Si2)7,0.04870000000000019
mp-770492,Li24Mn11CrO36,1.2313
mp-770302,Li24Mn5Cr7O36,1.0553
mp-779100,Li24Mn7Cr5O36,1.0745
mp-770504,Li24MnCr11O36,0.8510999999999997
mp-779361,Li24Ti11CrO36,1.5560999999999998
mp-771274,Li24Ti5Cr7O36,1.166
mp-771280,Li24Ti7Cr5O36,1.3016
mp-779077,Li24TiCr11O36,0.8887
mp-695291,Li25Ca5La7Nb8O48,3.3837
mp-531773,Li28Mg22N25,0.005300000000000082
mp-757872,Li2Ag3F6,0.1978
mp-1097442,Li2AgAs,0.9126000000000004
mp-1111365,Li2AgAsF6,1.8182
mp-754466,Li2AgF3,2.0522
mp-761269,Li2AgF4,0.3751000000000001
mp-760778,Li2AgF5,0.4086000000000001
mp-16238,Li2AgSb,0.14290000000000005
mp-557177,Li2Al(BO2)5,5.6317
mp-1196415,Li2Al2(SiO4)3,0.5541
mp-1222897,Li2Al2CrSbO8,2.4641
mp-1222822,Li2Al2P2O9F,0.3456000000000001
mp-1190556,Li2Al2Si4HO14,0.08149999999999999
mp-1222886,Li2Al2Si4O13,0.3165
mp-1111366,Li2AlAgF6,2.0864
mp-1096348,Li2AlAu,0.7029000000000001
mp-1199564,Li2AlB5(H19N3)2,6.0474999999999985
mp-556655,Li2AlBO4,4.864
mp-769801,Li2AlCoO4,1.6912000000000005
mp-1222901,Li2AlCr2SbO8,2.0203
mp-1111683,Li2AlCuF6,0.07939999999999969
mp-772267,Li2AlFeO4,3.1075
mp-769762,Li2AlNiO4,1.9406
mp-767214,Li2AlPCO7,5.7136
mp-770979,Li2AlVO4,1.6555
mp-1095731,Li2AsAu,1.3932000000000009
mp-768153,Li2AsPCO7,4.265
mp-699473,Li2B12H26O7,5.2083
mp-1204768,Li2B12H33N7,4.6069
mp-1200773,Li2B2H9N,4.6367
mp-29410,Li2B2S5,2.4427000000000003
mp-30100,Li2B2Se5,1.6310999999999996
mp-1196457,Li2B3O4F3,6.5687
mp-1020015,Li2B3PO8,5.402900000000002
mp-604459,Li2B4H4O9,5.1172
mp-769374,Li2B5SbO10,3.399
mp-1200209,Li2B6O9F2,6.2687
mp-1198324,Li2B8SeO15,4.8624
mp-1188485,Li2BF5,7.5624
mp-1180702,Li2BH6N,4.1961
mp-756641,Li2BPCO7,5.7155
mp-770654,Li2BSbO4,1.7717999999999998
mp-770832,Li2BSeO4,2.3328
mp-1210835,Li2BeCl4,6.2879000000000005
mp-4622,Li2BeF4,7.597899999999999
mp-8070,Li2BeSiO4,5.8679
mp-768756,Li2Bi(BO2)5,3.5901
mp-768437,Li2Bi(BO3)2,0.018000000000000016
mp-759735,Li2Bi(PO3)5,4.3121
mp-25802,Li2Bi(PO4)2,0.16720000000000002
mp-777356,Li2Bi2(SO4)3,1.8644000000000005
mp-768821,Li2Bi2B2O7,2.9226
mp-759784,Li2Bi2P2O9,3.5427
mp-759696,Li2Bi3P9O28,3.9591
mp-768740,Li2Bi5B3O13,2.1380000000000003
mp-772155,Li2BiAsCO7,3.367
mp-778115,Li2BiBO4,2.5645999999999995
mp-760419,Li2BiF5,4.0571
mp-759915,Li2BiP3O10,2.5981
mp-768216,Li2BiPCO7,3.7498999999999993
mp-768229,Li2BiS3,0.8880999999999997
mp-1198353,Li2C3SN6O7,0.10750000000000016
mp-9610,Li2CN2,3.7218
mp-3054,Li2CO3,5.0574
mp-1199122,Li2Ca(SiN2)2,3.4730000000000003
mp-1020009,Li2Ca2Si2O7,4.7378
mp-560247,Li2Ca2Si5O13,4.7981
mp-560036,Li2Ca3Be3Si3(O6F)2,5.7347
mp-556137,Li2Ca4Si4O13,4.456
mp-1096283,Li2CaCd,0.6013999999999999
mp-7611,Li2CaGeO4,4.1135
mp-16577,Li2CaHfF8,6.9952000000000005
mp-1096674,Li2CaMg,0.6461000000000001
mp-7610,Li2CaSiO4,5.189699999999998
mp-1194523,Li2CaTa2O7,2.8575
mp-1223290,Li2CaV12O32,1.8144
mp-559715,Li2Cd(PO3)4,4.5942
mp-38008,Li2CdCl4,3.6297
mp-1096001,Li2CdGa,0.034499999999999975
mp-7688,Li2CdGeO4,2.455
mp-1093611,Li2CdRh,0.10179999999999988
mp-557293,Li2CdSiO4,2.8338
mp-8152,Li2CeAs2,0.6880999999999999
mp-30042,Li2CeGe,0.0037000000000002586
mp-8181,Li2CeN2,1.2157999999999998
mp-754534,Li2CeO3,2.3497000000000003
mp-9912,Li2CeP2,0.8280999999999996
mp-1238771,Li2CeSm(MoO4)4,0.02129999999999921
mp-767175,Li2Co(CO3)2,2.8996
mp-761662,Li2Co(NiO3)2,0.2599999999999998
mp-705277,Li2Co(PO3)4,2.9247
mp-705362,Li2Co(PO3)5,0.8796999999999999
mp-585191,Li2Co(PO4)2,0.0897
mp-853229,Li2Co(SO4)2,2.9451
mp-770682,Li2Co(Si2O5)2,3.0596
mp-763391,Li2Co(SiO3)2,2.9727
mp-556321,Li2Co(WO4)2,2.6607
mp-763157,Li2Co2(CO3)3,2.6157000000000004
mp-778578,Li2Co2(SO4)3,2.8014
mp-763399,Li2Co2(SiO3)3,2.6519999999999997
mp-763346,Li2Co2C2O7,2.1647
mp-780860,Li2Co2OF6,1.1378
mp-762034,Li2Co2P2O9,1.0645
mp-763382,Li2Co2Si2O7,2.8249
mp-763534,Li2Co2SiO6,0.7170000000000001
mp-768010,Li2Co2SnO6,0.8415999999999997
mp-585378,Li2Co3(P2O7)2,2.8176
mp-699738,Li2Co3(SeO3)4,2.6422
mp-763462,Li2Co3(SiO4)2,2.4703
mp-770594,Li2Co3BiO8,1.065
mp-764181,Li2Co3OF6,1.6904
mp-762045,Li2Co3SbO8,0.7363999999999997
mp-1178025,Li2Co3TeO8,0.6409999999999999
mp-775180,Li2Co3WO8,0.528
mp-780832,Li2Co4O3F8,0.6079
mp-690530,Li2Co4O5,0.6091000000000002
mp-765686,Li2Co4OF8,2.2384
mp-761299,Li2CoBO4,1.4304
mp-763280,Li2CoCO4,2.5619
mp-772371,Li2CoCSO7,2.4992
mp-22980,Li2CoCl4,0.07899999999999996
mp-769597,Li2CoGe3O8,2.4709
mp-769776,Li2CoGeO4,2.4019999999999997
mp-770638,Li2CoH12(SO7)2,3.3284
mp-770598,Li2CoH8(CO5)2,3.0362
mp-770611,Li2CoH8(SO6)2,3.2881
mp-761996,Li2CoNi(PO4)2,2.5657
mp-1178042,Li2CoNi3O8,0.3624000000000001
mp-775097,Li2CoO2,2.5492
mp-764063,Li2CoO2F,0.6811999999999996
mp-1173883,Li2CoO3,0.1602999999999999
mp-764100,Li2CoOF2,0.1825000000000001
mp-780042,Li2CoOF3,1.0344
mp-540132,Li2CoP2O7,2.6714
mp-25482,Li2CoPCO7,0.7795999999999998
mp-943466,Li2CoPHO5,2.8024
mp-770853,Li2CoPO4F,2.6148
mp-764963,Li2CoSi3O8,3.1591
mp-763301,Li2CoSiO4,2.957
mp-766846,Li2CoSn(PO4)2,1.6075
mp-775112,Li2CoSnO4,1.7113999999999994
mp-772433,Li2Cr(BO2)5,2.237
mp-768000,Li2Cr(CO3)2,3.3810000000000002
mp-849344,Li2Cr(CO3)3,0.019500000000000003
mp-782631,Li2Cr(FeO3)2,0.09089999999999998
mp-541476,Li2Cr(H2O3)2,3.052
mp-697850,Li2Cr(PO3)4,2.8226
mp-1101550,Li2Cr(PO3)5,3.2384
mp-540219,Li2Cr(PO3)8,2.7315
mp-780160,Li2Cr(PO4)2,0.0363
mp-853225,Li2Cr(SO4)2,2.2486
mp-762393,Li2Cr(Si2O5)2,2.6140000000000003
mp-775349,Li2Cr(Si2O5)3,1.3265999999999998
mp-762315,Li2Cr(SiO3)2,1.5998
mp-770410,Li2Cr2(SO4)3,2.4379
mp-773998,Li2Cr2(Si2O5)3,1.5092999999999996
mp-762918,Li2Cr2CoO6,0.6529000000000003
mp-1222836,Li2Cr2FeSbO8,1.7935999999999996
mp-743649,Li2Cr2H4O9,2.6689999999999996
mp-778718,Li2Cr2O7,2.378
mp-1237680,Li2Cr2O9,0.9943
mp-762725,Li2Cr2P2O7F2,2.1716
mp-761438,Li2Cr2P2O9,2.3611
mp-762392,Li2Cr2Si2O7,1.0305
mp-762523,Li2Cr2Si2O9,0.5087999999999999
mp-761645,Li2Cr2Si4O11,2.5679000000000003
mp-761646,Li2Cr2Si5O13,2.8549
mp-762403,Li2Cr2SiO6,2.847
mp-771865,Li2Cr2SnO6,3.1686
mp-763109,Li2Cr3(CoO4)3,0.2259
mp-772468,Li2Cr3(CoO6)2,1.789
mp-1178040,Li2Cr3(CuO6)2,0.1471
mp-775129,Li2Cr3(FeO6)2,0.6282
mp-780190,Li2Cr3(NiO6)2,2.4624
mp-540179,Li2Cr3(P2O7)2,2.1845
mp-761578,Li2Cr3(SiO3)4,2.3455
mp-1178061,Li2Cr3CoO8,0.5684
mp-777277,Li2Cr3CuO8,0.5247999999999999
mp-777653,Li2Cr3FeO8,0.10189999999999966
mp-772687,Li2Cr3Ni(SO4)6,0.5190999999999999
mp-772329,Li2Cr3NiO8,0.4205000000000001
mp-772426,Li2Cr3O10,2.0244
mp-762466,Li2Cr3O6,0.5545999999999998
mp-774386,Li2Cr3P4(HO4)4,2.8400000000000003
mp-775439,Li2Cr3P5O18,0.845
mp-779220,Li2Cr3P9O28,2.9883
mp-775393,Li2Cr3SbO8,2.8111999999999995
mp-761642,Li2Cr3Si3O10,2.1846
mp-774276,Li2Cr3SnO8,0.9318
mp-775271,Li2Cr3WO8,2.1889
mp-770390,Li2Cr4O13,1.5539
mp-762977,Li2Cr4P4O15,2.0709000000000004
mp-761503,Li2Cr4Si4O13,1.4543
mp-1101544,Li2Cr5(PO4)4,2.4605
mp-766715,Li2Cr5(Si2O5)6,1.6612
mp-868281,Li2Cr5(Si2O7)2,2.3142000000000005
mp-772573,Li2Cr5B3O13,1.2860999999999998
mp-773797,Li2Cr5O12,0.5972000000000001
mp-773176,Li2CrAsCO7,2.96
mp-770067,Li2CrCSO7,2.2892
mp-29582,Li2CrCl4,0.5017999999999998
mp-761707,Li2CrCo(PO4)2,1.0351999999999997
mp-765927,Li2CrCoO4,1.9215000000000004