,composition,Tc
2111,Fe1Se0.96S0.04,9.58
2115,Y1Ba2Cu2.94Cu0.6O7,89.1
2116,Rh0.05Zr0.95,5.0
2119,C1.35Y1,10.0
2120,La0.98Nd0.02,3.77
2121,Y1Ni1.7Pd0.3B2C1,10.7
2122,Pr1Ru4P12,1.8
2123,Y0.85Ca0.15Ba2Cu2.85Co0.15O6.78,57.5
2124,Hf0.5Nb0.5,8.905
2125,La1.81Sr0.15Ho0.04Cu1O4,31.65
2126,Pb1.14S5.14Ta2,3.3
2127,Ca0.8La0.2Fe0.9671Co0.0329As2,36.5
2128,La1Fe0.875Co0.125As1O1,6.6
2129,Y0.8Pr0.2Ba2Cu3O7.67,67.5
2130,Yb0.995Pr0.05Ba2Cu3O6.97,89.5
2131,Y0.6Th1.4C2.9,14.6
2132,Mg0.94Pb0.06B2,35.0
2133,Nd1Fe1As1F0.1O0.9,50.525
2135,Bi1.95Sr1.65La0.4Cu1F0.8O5.4,13.0
2136,Er1Ba2Cu2.91Fe0.09O6.96,83.0
2137,La1.812Sr0.188Cu1O4,33.7
2138,Nb2Sn1Ta0.5V0.5,12.2
2140,Y1Ba2Cu2.95Zn0.05O6.94,73.9
2141,Sm1Fe1As1O0.67,55.0
2142,Al1Gd0.003La3,4.58
2144,Ca1Al0.9Ga0.1Si1,6.54
2145,Nb80Ga18Fe2,13.1
2146,Ce1Co1In4.5Cd0.5,1.35
2147,La1.834Sr0.166Cu0.99Zn0.01O4,26.5
2148,Y0.85Ca0.15Ba2Cu4O8,88.9
2150,Sr0.5K0.5Fe2As2,37.7
2151,La1.78Sr0.22Cu0.985Zn0.015O4,10.0
2152,Mo0.4W0.6C1,11.3
2153,Fe1Te0.4Se0.4,14.4
2154,La1.93Sr0.07Cu1O4,17.2
2155,Mo5.22Zr94.78,4.0
2156,Pd49.75Ni0.25Sb50,1.5
2159,Nd1Fe1P1F0.1O0.9,2.9
2160,U1Be12.9701B0.0299,1.66
2161,Nb3Sb1,1.1
2163,La1.8Sr0.2Cu0.9727Zn0.0273O4,11.1
2165,Y0.85Ca0.15Sr1.5Ba0.5Cu2.5B0.5O7,35.5
2168,Zn1Mo5S6,3.12
2169,Ca1Fe0.74Co0.26As1F1,3.49
2172,La0.7Th0.3Ni1C2,7.2
2173,Er0.85Hf0.15Ba2Cu3O6.813,79.9
2175,Re0.1Ta0.9,1.49
2176,Mo0.55Pt0.05Re0.4,10.2
2179,V2.7Ti0.3Si1,10.9
2180,C0.4Mo0.6,10.1
2181,Bi1.95Sr1.85Nd0.2Cu1O4,26.0
2182,Hg1Sn1,4.2
2183,K0.2Sr0.8Fe2As2,13.0
2185,La1.85Sr0.12Ca0.016Ba0.014Cu1O3.99,34.1
2186,Na1Fe0.95Co0.05As1,16.3
2187,Lu1Tc2,9.9
2188,Os0.115Re0.885,1.79
2189,Cs0.33Ta1S2,3.8
2190,Nb3Sn0.3Sb0.7,6.8
2191,Rh0.91Ti0.09,2.0
2192,Nb3Rh0.95Os0.05,2.39
2194,Ce1Fe1As0.95P0.05F0.05O0.95,17.2
2195,Y1Ba2Cu3H0.49O7,93.6
2196,Fe0.03Nb0.25Ti0.72,8.5
2197,Y0.96Gd0.04Ru2,3.5
2198,V0.75Si0.2125Al0.0375,12.6
2199,La0.8Y0.2Fe1As1O0.6,32.5
2200,Nb3Al0.7Ge0.3,19.9
2201,Y1Ba2Cu2.9Fe0.1O6.8,50.55
2203,La1.81Sr0.19Cu0.94Co0.06O4,31.8
2204,Y1Ba1.54La0.46Cu3O7.118,44.1
2205,Ce0.95La0.05Co1In5,1.68
2206,Eu1Th3.4Ru0.6B4,1.5
2208,Mo1Re3,9.89
2209,La1.83Ca1.006Sr0.164Cu2O6.08,14.1
2210,Y1Re0.15Ba2Cu2.85O7.07,91.5
2211,La2Cu1O4.034,30.7
2212,La1.95Bi0.05Cu1O4.075,25.7
2213,Pr1Fe1P1O1,3.586666667
2215,Nb0.8Ga0.18Cr0.02,13.1
2216,Fe1.03Te0.72Se0.28,13.9
2217,V3Ga0.6Si0.4,9.5
2218,Y1.8W0.2C3.1,14.8
2219,Bi1.7Pb0.3Sr2Ca2Cu3O10,107.25
2220,La1Bi1S2F0.5O0.5,4.817058824
2221,Nb0.2U0.8,2.009
2222,V2.52Mo0.48Si1,5.1
2223,Ba0.57K0.43Bi1O3,21.2
2227,Pt2Y1,2.835
2228,Hg1Ba2Cu1O4.085,92.0
2231,Nb3Sn0.4Al0.6,13.6
2234,Sb0.4Sn0.6,3.8
2235,Ba1Ga1Ge1,2.4
2239,La1Fe1As1F0.11O0.89,26.34666667
2240,La1.82Sr0.18Cu0.97Fe0.03O4,29.0
2241,Ca3Rh8B2,4.0
2243,Ca0.4Ba1.35La1.25Cu3O7.15,78.8
2244,Al1Sr2Ca2Cu3O9.3,63.0
2245,Ce1Ru1.99Co0.01,4.74
2247,Nb0.25Sn0.25V0.5,5.5
2248,Sr1.5K0.5Cu1C1O5,20.0
2249,Ti0.64Nb0.18Ta0.18,8.18
2250,Ho0.93La0.07Ni2B2C1,3.0
2251,Ga0.05Sn0.95,3.938
2252,La1.87Sr0.13Cu0.98Li0.02O4,32.85
2253,Sn0.36Eu0.7Mo6.35S8,7.94
2255,Sn0.552Pb0.368In0.08Te1,2.16
2256,Si0.025V0.975,4.06
2257,Y0.9Ga0.1Ba2Cu4O8,74.0
2258,Mo1.86Ta0.14B1C1,5.6
2259,La3Rh4Pb13,2.2
2261,Bi0.1Pt1Sb0.9,1.21
2262,Lu1.9Sc0.1Fe3Si5,4.33
2263,Nb1Pb1S3,2.66
2264,Ba1Pt1Si3,1.875
2265,Y1Ba2Cu2.72Ni0.28O7,51.0
2266,Sr1Pd1.8Ni0.2Ge2,3.15
2268,La1.815Sr0.185Cu0.99Zn0.01O4,24.0
2269,La1Ni2P2,2.6
2270,La5Ru2,2.35
2272,Ba0.6K0.4Bi0.9Pb0.1O3,21.5
2273,La1Pt1B1N1,6.7
2274,La1.3Ba1.4Sr0.3Cu3O6.91,50.0
2275,Lu1.9Sc0.1Ir3Si5,3.2
2276,Ba1Fe1.8Ir0.2As2,27.4
2278,Re3Ta1,5.765
2280,Fe0.5Ba1Sr1Dy1Cu2.5O7.447,37.9
2281,Yb0.9Pr0.1Ba1.7Sr0.3Cu3O6.9,81.0
2282,K0.4Mo1S2,5.8
2283,La1Nd0.86Ce0.14Cu1O3.978,16.0
2286,V2.79Ce0.21Ga1,7.5
2287,V0.767Ga0.18Al0.053,11.5
2290,Ge3Mo5,1.65
2291,Ba0.45K0.55Bi1O3,12.7
2292,Tl1Sr2Ba2Cu2C2.4N0.6O7,49.0
2293,Al0.245Nb0.725,18.4
2294,Lu0.5Pr0.5Ba2Cu3O6.75,40.1
2295,Hg1Ba2Cu1O4.108,89.1
2297,Ba1Fe1.6Ir0.4As2,24.5
2299,Sm1Ba2Cu2.92Zn0.08O6.85,49.0
2300,K0.915Bi1.085O3,9.0
2302,Sm1.05Ba1.95Cu3O6.99,88.5
2304,Os0.065Re0.935,1.92
2306,Hf0.15Nb0.85,9.85
2309,Ce1Bi3.4Pb0.6Te6,3.0
2311,Sm1Fe1As0.95P0.05F0.12O0.88,46.8
2312,Nd0.65La1.2Ce0.15Cu1O4,5.8
2313,Mg1B1.736C0.264,17.6
2314,Y1Ba1Sr1Cu2.95Mo0.05O7.07,85.0
2315,Lu0.7Ca0.3Ba2Cu3O6.78,54.0
2317,La0.88Mo6Se8,10.25
2320,La1.936Ce0.064Cu1O4,13.8
2321,Sr3.5Ca11.5Cu24O41,9.0
2324,La1.8Sr0.2Ca1Cu2O5.96,54.0
2326,C0.54Sr2Ca0.6Y0.4Cu2.38O6.89,56.7
2330,Rb0.1Li0.1W1O2.8F0.2,2.0
2331,Bi2Sr1.5La0.5Cu1O6.38,21.0
2332,Ce0.8Pr0.2Ru2,5.82
2333,Y0.5Pr0.5Ba2Cu3O6.96,12.0
2335,Mo0.9Ru0.1C1,13.7
2336,Nb80Ga15Mn5,5.0
2337,Y0.2Yb0.8Ba2Cu3O6.91,91.4
2338,Lu1Ni1B0.9C1.1,2.9
2339,Sr0.7Y0.3Cu1O2,32.6
2340,Ce0.01La0.99,3.63
2341,Nd1Ni0.89Bi2,4.1
2342,La1.85Sr0.15Cu0.97Zn0.03O4,1.05
2343,Y2I0.25Br1.75C2,5.5
2344,Pb0.16Sn0.64In0.2Te1,3.31
2345,Y1.8Zr0.2C2.9,13.0
2346,Hg0.7Bi0.3Sr2Ca2Cu3O8.35,107.0
2347,K0.8Fe2Se0.42S1.58,1.9
2348,Hg1Ba2Cu1O4.066,88.5
2349,La0.9462Ce0.0538Sn3,1.86
2350,Y2Br0.75Cl1.25C2,3.7
2352,Mo6Se7.5S0.5,5.45
2354,Y1Ba2Cu2.9Zn0.1O6.81,55.0
2355,Y1Ba1.5Sr0.5Cu3O6.75,49.9
2358,K0.76Fe1.61Se0.96S1.04,16.4
2359,Mo0.0905Ti0.9095,3.05
2362,Ce0.84Y0.16Ru2,4.92
2365,Ca1Hg5,1.7
2366,Dy1Ba2Cu2.96Fe0.04O6.89,82.0
2367,Nb3Tl0.1Sn0.9,18.25
2368,Pr0.6Sr0.4Fe1As0.9Sb0.1O1,22.0
2369,Nb0.87Ta0.13,8.15
2370,In0.71V6S8,5.4
2371,La1Ni1As1O1,2.71
2373,Y1Ru2Si2,1.1
2374,Ce1Fe0.98Co0.02As1H1,2.0
2375,K3N1H3C60,28.0
2378,Y1Ni1.94Ru0.06B2C1,8.7
2380,Ce0.12Si1V2.88,15.32
2381,Pd49.75Co0.25Sb50,1.57
2382,Ba1.6Sr0.4Yb1Cu3O6.48,10.0
2384,Ta1Pt1Si1,3.54
2385,Mg0.97Na0.03B2,38.0
2386,Nd0.95Ca0.025Pr0.025Ba2Cu3O6.95,86.1
2387,Sm1Fe1As0.77P0.23H0.2O0.8,36.0
2389,Ce1Rh0.3Ir0.7In5,1.2
2390,Tl0.4Rb0.4Fe2Se2,31.35
2391,Tl1Ni2Se2,3.7
2392,Lu1Ni0.8V0.2B1C1,2.6
2394,Ba1.6Sr0.4Yb0.75Ca0.25Cu3O6.19,24.0
2395,Bi2Sr1.6La0.4Cu1O6.307,27.6
2396,Ba1Fe1.87Zn0.02Co0.11As2,20.0
2397,Dy0.8Ca0.2Ba2Cu2.7Zn0.3O6.78,28.0
2401,La1.8Nd0.2Cu1O4.0641,25.1
2402,La1Ni0.85Cu0.15C2,3.31
2403,Ho0.8Ca0.2Ba2Cu4O8,87.0
2405,Y1Ba2Cu3.938Zn0.062O8,47.0
2407,Fe1Te0.925Se0.075,11.5
2408,Cu19.6Zr78.4Mn2,1.14
2409,Ca0.4Ba1.25La1.35Cu3O7.11,47.1
2411,Li0.45Nb1O2,5.5
2413,La1.6Ba0.4Cu1O4,4.2
2414,Be12Mg1Re1,10.1
2415,Zr2Co0.7Ga0.3,4.97
2418,Y1Ba2Cu2.97Zn0.03O6.7,50.0
2419,Bi2Sr4Cu2C1O11,30.0
2420,Nb3Ga0.9Sn0.1,16.1
2421,Tc0.1W0.9,1.25
2422,H4Si1,17.0
2423,Nb0.991Ta0.009,8.87
2424,Mg0.71Al0.29B2,24.0
2425,Pb0.5Cu0.5Sr0.9La1.1Cu1O5.08,37.7
2426,Sr1Fe1.57Ir0.43As2,24.2
2427,La1.91Ca0.09Cu1O4,20.0
2429,La0.6Pr0.6Ba1Ca1Cu3O7,28.0
2430,Lu4.75Sc0.25Ir4Si10,6.06
2431,Ce0.875Yb0.125Co1In5,1.97
2432,Nd1.4Ba1.6Cu3O7.09,38.0
2433,Nd1.11Gd0.74Ce0.15Cu1O4,15.0
2434,Mg0.983Al0.017B1,35.9
2435,Y1Ba2Cu2.98Zr0.02O6.84,90.2
2436,Er0.95Hf0.05Ba2Cu3O6.938,86.0
2437,Sr0.9La0.1Cu0.99Ni0.01O2,30.0
2438,La0.5Lu0.5Ni2B2C1,14.8
2441,Y0.9Gd0.1Rh4B4,8.66
2442,Th1.4Ho0.6C3,5.2
2444,Y1Ba1.96Sr0.04Cu3O6.98,91.8
2445,Tl0.25Li0.25Ba2Ca2Cu3Si0.5O7.835,111.0
2446,La7Pd3,1.48
2448,Sn1V3,4.4625
2450,Li2Pd2.4Ni0.6B1,7.033333333
2452,Ce1Au2Si2,2.0516666669999997
2453,Y1Ba1.75Cu2.75Co0.25O6.95,25.0
2454,Y1La0.3Ba1.7Cu3O7,57.45
2455,C0.03Rh0.43Ta0.54,10.0
2457,Bi1In5,4.1
2458,Mg1B1.8Be0.2,36.0
2460,Y0.981Ba1.994Ca0.025Cu4O8,87.1
2461,Tl1Fe1.7Se2,22.4
2462,Y2I0.5Br1.5C2,6.0
2463,La1.65Ba1.5Ca0.35Cu3O6.79,72.0
2465,Mg9.3Ir19B16.7,5.8
2467,Si0.22V0.78,14.38
2468,Gd1Fe1As1O0.7,53.6
2469,C1Mo1,10.152000000000001
2470,La1.76Sr0.24Cu1O4,17.7
2471,La1.76Sr0.24Cu0.94Mn0.06O4,35.5
2472,Pb2Sr0.9La1.1Cu2O6.31,33.2
2475,K0.73Fe1.44Se1.68S0.32,31.4
2477,Si3Y1,4.63
2481,Y1Ba2Cu3O6.861,80.5
2482,La1.875Ba0.065Sr0.06Cu1O4,10.4
2483,V2.7Nb0.3Si1,12.8
2485,Ir0.85Rh0.15Te2,2.39
2486,La1.2Ba1.5Ca0.3Cu3O6.72,27.0
2487,Nd1Fe1As1F0.175O0.825,53.0
2488,Ga41Mo8,9.7
2490,Ir45Ta55,3.39
2491,Hg0.8Nd0.2Ba2Ca2Cu3O8.3,128.0
2493,Pb0.57Sn0.43,7.45
2495,Gd0.05Sm1.8Ce0.15Cu1O4,19.1
2496,La1.84Ba0.16Cu0.99Zn0.01O4,12.4
2497,Na1N1C60,14.7
2498,Ni2Zr0.85Nb0.15Ga1,2.4
2499,La1.5Nd0.5Ca1Ba2Cu4.85Mo0.15O11.322,70.0
2500,Dy1Ba1.97Cu3.06O7,87.1
2502,La0.8Ce0.2Ru2,2.01
2505,Ru1Sr2Gd0.9Ca0.1Cu2O8,61.0
2508,Al1Mo6Pd1,2.1
2509,Y1Ba2Cu3O6.852,89.2
2511,V3Si0.986Sb0.014,10.5
2512,La0.7Y0.3Fe1As1O0.6,35.6
2513,Nb5Si2B1,6.4
2514,La1.77Sr0.23Cu0.995Zn0.005O4,18.0
2515,Sn0.4797Pb0.3203In0.2Te1,4.16
2517,Y1Ba2Cu2.95Fe0.05O6.79,67.6
2518,Hg0.75Mo0.05Sr2Ca2Cu3O,106.0
2519,Ge3Te4,1.55
2520,Au1.6Pd0.4In1Y1,2.64
2521,Bi2Sr2Ca1Cu1.952Ni0.048O8,74.0
2523,Ba1Fe1.915Ni0.085As2,18.2
2525,Y0.8Ca0.2Ba2Cu3O6.78,84.2
2529,V3Ga0.937In0.063,11.5
2531,Ta25Ti75,6.0
2533,La0.8Th0.2Ni1C2,5.4
2534,Nb3Al0.8B0.2,17.8
2535,Bi2Sr2Ca0.9Ce0.1Cu2O8,75.455
2536,As0.15Nb3Sn0.85,17.98
2537,Mg0.8Na0.2B2,38.0
2538,Sn0.01V0.99,4.21
2539,Ce0.97Gd0.03Ru2,4.69
2541,Hg3Li1,1.7
2542,Ho1Ni1.998Co0.004B2C1,7.2
2543,Eu0.8Pr0.2Ba2Cu3O6.97,57.9
2544,La1Fe0.98Zn0.02As1O0.85,4.32
2545,Tm1Ba2Cu3O6.95,89.465
2546,La1.675Nd0.2Sr0.125Cu1O4,10.5
2547,Ce1Fe0.74Co0.26As1H1,10.0
2548,Be0.95Ru0.05,1.47
2551,Mg0.915Al0.085B2,32.4
2552,Ga0.245Nb0.755,20.2
2553,La2.1Gd0.9Ca1Ba2.6Sr0.4Cu6.72In0.28O16.54,65.0
2556,Cs0.8Fe2Se2,29.2
2557,Pd2Y0.9Er0.1Sn1,3.87
2560,Nb3Al0.5Sn0.5,16.0
2561,Eu1Fe1.6As2P0.4,23.5
2562,Sn0.915In0.073Te1,1.9
2563,Er0.52Ca0.48Ba1.4Sr0.6Cu2.76Co0.24O6.77,54.0
2564,La1.912Ca0.0875Cu1O4,16.0
2567,Ba1Fe2As1.36P0.64,29.1
2568,K0.8Fe1.996Cr0.004Se2,20.0
2569,Ag1La1,1.073333333
2570,Ru0.7Rh0.3P1,1.13
2571,Nd1Ba1Sr1Cu3O6.94,74.0
2574,Ba0.57K0.43Bi1O2.983,25.6
2576,Pb0.5Sr2Ca0.5Ho0.5Cu2.5O7,67.9
2577,Y1Ba2Cu2.95Zn0.05O6.56,24.0
2578,La1Fe1As1F0.13O0.87,25.4
2581,Pr1Mo6S8,2.55
2583,Ti0.64Nb0.1Ta0.26,7.78
2584,Fe1.03Se0.25Te0.75,12.5
2585,Y1Rh4B4,10.95775
2586,Cu1S1.8Se0.2,2.2
2587,Y1Ba2Cu3H0.1O6.765,73.0
2589,Pr185Ce0.15Cu1O4,20.0
2590,Ba1Fe1.908Ni0.092As2,18.6
2591,Be5Ir1,1.5
2594,Yb0.7Ca0.3Ba1.6Sr0.4Cu3O6.56,81.35
2596,Ba0.6K0.4Bi0.955Pr0.045O3,14.4
2598,La1Ba1.25Sr0.75Cu3O6.996,54.1
2601,Yb0.75Pr0.25Ba1.7Sr0.3Cu3O6.92,71.0
2603,Li0.8Fe1.2H1Se1,34.0
2604,La1.84Y0.04Sr0.12Cu1O4,17.0
2605,Ir0.1Zr0.9,5.5
2606,Sr0.28Eu0.72Fe1.76Co0.24As2,12.3
2607,Dy1Ni1.985Co0.03B2C1,2.1
2608,Tl1Sr1.75Th0.25Ca1Cu2O7,51.6
2610,B5Nb1.8Ru0.2,6.0
2611,Sr1Fe1.916Co0.084As2,2.0
2612,Er1Ba1Sr1Cu3O6.94,78.0
2613,La0.9Th0.1,5.62
2614,Cu0.1Ti2Se2,2.95
2616,Sr1Pd2Si0.02Ge1.98,2.76
2617,Lu0.7Ca0.3Ba2Cu3O6.4,68.0
2619,Ca10Pt3.51Fe9.49As18,12.44
2620,Gd0.7Ca0.15Hf0.15Ba2Cu3O6.93,83.8
2621,Mo0.14U0.86,2.02
2622,Hg1Ba2Ca1Cu2O6.13,102.0
2623,Cd0.3Hg0.7,1.7
2624,Sm1.65Gd0.2Ce0.15Cu1O3.97,21.0
2626,Y0.47Pr0.53Ba2Cu3O6.96,13.5
2627,Nd1.85Ce0.15Cu0.996Zn0.004O4,18.1
2629,Co0.94Rh0.06U6,2.0
2635,Y0.8Ca0.2Ba2Cu3O6.1,50.0
2637,Y1Ba2Cu2.9Ni0.1O6.61,20.5
2638,Pd2Lu1Pb1,2.4
2639,Y1.8Ge0.2C2.7,10.6
2641,Tl2Ba2Ca1Cu1.98Fe0.02O8,106.0
2642,Yb0.65Pr0.35Ba1.7Sr0.3Cu3O6.95,55.0
2643,La0.936Gd0.064Sn3,3.76
2644,Cr0.027Ti0.973,3.5
2645,Sn1Mo6Se8,3.4
2647,Ti70Nb15Si15,4.6
2648,Nd1.5Ba1.5Cu3O7.14,20.0
2650,Ti0.72V0.18Al0.1,3.52
2652,Sr1Ga1Ge1,1.3
2653,Ga0.25Si0.75V3,18.6
2656,Nd1.2Ba1.8Cu3O6.954,50.0
2657,C3Er0.6Th1.4,8.1
2658,Lu0.945Gd0.055Ni2B2C1,13.28
2659,Y0.65Pr0.35Ba2Cu3O6.85,16.3
2662,Y1Ba2Cu3H0.08O7,88.0
2663,Ba1Fe1.86Co0.12Mn0.02As2,12.5
2664,Y1Ba1.95Cu2.95Co0.05O6.9,70.0
2665,Fe1.12Se0.11Te0.83,6.05
2666,C1.5Ge3La5,3.3
2670,Hg1Ba2Ca1Cu2O6.31,98.0
2672,Y1Ba2Cu2.84Fe0.16O7.303,85.0
2673,Mo0.15Ti0.85,4.08
2674,Tl0.25Li0.25Ba2Ca2Cu3.5O7.955,117.0
2675,Yb1Ba2Cu4O8,78.8
2676,Mg0.73Sc0.27B2,6.0
2677,Ba0.6K0.4Bi0.5Pb0.5O3,7.2
2678,Ca0.32Na0.68Fe2As2,33.0
2680,Mg1C0.69Ni3,1.8
2681,La1.75Sr0.25Cu1O4.07,37.0
2682,Ga9Ir2,2.225
2684,Pr0.95La0.05Os4Sb12,1.815
2685,Y0.6Ca0.4Sr1.6Ba0.4Cu2Ga1O7,56.0
2687,Tm5Rh4.8Co1.2Sn18,1.97
2689,La1.35Pr0.5Sr0.15Cu1O4,34.3
2691,Mo6Se8,6.277142857
2692,Ca1.89Na0.11Cu1Cl2O2,15.14
2693,Tl0.6Rb0.4Fe1.67Se2,32.0
2694,Ca0.3Ba1.45La1.25Cu3O7.12,69.3
2695,Tl3Y1,1.52
2696,Mg0.75Co0.25B2,34.0
2697,La2Cu1O4.005,32.0
2699,Pb2Sr2Y0.5Ca0.5Cu3O8.6,65.0
2700,Ba1Fe1.87Co0.13As2,25.0
2701,Ba1.6Sr0.4Yb0.6Ca0.4Cu3O6.04,47.0
2702,Nd1Fe0.98Co0.02As1F0.11O0.89,40.1
2703,W4.8Ta0.2Si1B2,6.5
2705,Y1Ru3Si2,3.51
2706,Pd0.26Ti0.74,1.66
2708,Y2Pd1Ge3,3.125
2711,Nd1.3Ba1.7Cu3O7,69.0
2713,Hg0.65V0.35Sr2Ca0.55Nd0.45Cu2O6.8,67.0
2714,La1.85Sr0.15Cu0.99Co0.01O4,25.2
2715,Sb0.7Sn0.3,2.85
2718,Mg1C1Ni2.94Cu0.06,6.3
2719,Y1Ba1.8Sr0.2Cu3O6.8,90.5
2720,Sn0.9025Ge0.0475In0.05Te1,1.72
2721,Gd1Nd0.85Ce0.15Cu1O4,5.9
2722,B1W2,2.133333333
2723,Hg0.76Tl0.76Ba1Cu1O4.5,87.5
2727,Hg0.714Tl0.286,3.875
2729,Ce0.0007La0.9993,4.65
2730,Au30Pd3.3Te66.6,2.6
2731,Ho1Ni1.99Fe0.01B2C1,7.0
2733,Zr2Co0.8Ni0.2,5.83
2734,Mg1B1.826C0.174,30.8
2735,La1Fe1As0.5P0.5F0.05O0.95,21.2
2736,Ba0.79K0.21Fe2As2,18.0
2737,Y0.8Pr0.2Ba2Cu3O7.55,68.3
2738,La1.931Sr0.069Cu1O4,12.0
2740,Th1Ir0.1Si1.9,2.75
2741,Sn0.588Ge0.252In0.16Te1,1.42
2743,Bi1.09Ta2S5.09,2.65
2744,H0.983Pd1,7.355
2746,Nd1.85Ce0.15Cu0.995Zn0.005O4,18.0
2747,In0.913Pb0.087,4.2
2748,Mg1C1Ni2.97Cu0.03,6.8
2749,Eu0.1La1.7Sr0.2Cu1O4,33.0
2750,Fe1Se0.98,8.105
2753,Nb3Rh0.98Pd0.02,2.5
2755,Mo1B0.01C0.82,12.2
2756,Nd2Cu1F0.24O3.76,27.0
2757,V0.75Si0.175Al0.075,11.1
2758,Mn1U6,2.4525
2759,Bi2Sr2Ca1Cu2O8.272,92.2
2760,Mg1C0.978Ni3,7.3
2762,Ba1Fe1.66Zn0.12Co0.22As2,4.6
2763,Sm1Fe1As1F0.18O0.82,45.0
2764,Y1Ba2Cu3O7.19,89.0
2767,Y2Pt1Ge3,2.14
2768,Bi1.95Sr1.65La0.4Cu1O6.334,30.5
2769,H0.963Pd1,6.377000000000001
2770,Ca0.88Ce0.12Fe2As2,33.2
2771,Nb0.8Ga0.17Cr0.03,11.5
2772,Gd0.8Hf0.2Ba2Cu3O6.79,79.5
2773,Ir0.25Mo0.75Nb2.25Pt0.75,6.5
2774,C0.8N0.2Sr2Cu1O5.3,33.0
2775,Sr1.75K0.25Cu1C1O5,13.0
2776,Y0.925Ca0.075Ba2Cu4O8,83.8
2778,Y0.6Ca0.4Sr1.7Ba0.3Cu2Ga1O7,50.0
2779,Nb0.758Al0.174Ge0.069,19.7
2780,Eu0.9Pr0.1Ba2Cu3O6.78,83.0
2781,Y0.6Pr0.4Ba2Cu3O6.88,47.0
2783,Dy1Ba2Cu3O6.879,86.0
2787,Er1Pb2,7.4
2788,Be2Os1,3.07
2789,Y0.44Pr0.56Ba2Cu3O6.93,2.1
2792,Nd1.85Ce0.15Cu0.995Co0.005O4,7.3
2793,H0.46Mo0.1Nb0.72Pd0.18,4.82
2794,Nb0.97Tc0.03,7.6
2795,Pb0.7Eu0.3Mo6.35S8,12.3
2796,C1.45Y1,11.5
2797,Nb2.01V0.99Au1,2.9
2798,Mg0.4Al0.6B2,8.925
2801,As1Pb1,8.4
2803,Ca1.6Na0.4Cu1Cl2O2,27.8
2804,Nb0.83Pd0.17,2.2
2805,Sr1Ga0.74Si1.26,3.85
2807,Y0.95Ca0.05Ba2Cu2.95Co0.05O6.75,64.0
2809,La1Fe0.9Co0.1As1O1,11.02
2811,La1.85Sr0.15Cu1O3.998,37.0
2812,In0.06Sn0.94Te1.01,1.36
2814,V2.808Re0.192Si1,4.7
2815,Nd1Bi1S2F0.3O0.7,4.64
2816,Er0.9Ca0.1Ba2Cu3O6.93,82.5
2819,K0.9Na0.1Fe2As2,2.9
2820,Ce0.84Y0.06Gd0.1Ru2,3.32
2821,C1.45Th1,4.1
2822,La3Ca0.3Cd0.7Ba3Cu7O16.303,36.0
2824,Y1Ba1.9Ca0.1Cu3O6.84,85.0
2825,C3La2,10.66
2826,La1Ni0.72Bi2,4.05
2828,La1.67Sr0.33Cu1O4,37.0
2830,Ce1Os3B2,3.5
2831,Ir2Sc1,1.55
2834,Al1Pb1,1.2
2835,Y0.99La0.01Ba2Cu3O7.07,91.0
2837,Pr1Pt4Ge10Sb2,1.27
2838,Hg0.8Pb0.2Ba2Ca2Cu3O8.3,125.0
2839,Er0.76Ca0.24Ba1.4Sr0.6Cu2.76Co0.24O6.84,64.0
2841,Y1Ba2Cu3.92Mn0.08O8,41.6
2843,Si1Ti0.15V2.85,14.55
2844,Bi0.16Pb0.3V0.1Sr2Ca2Cu3O10.12,102.5
2846,Y1Ba2Cu2.7Co0.3O7.11,36.0
2847,Ba1Fe1.914Pd0.086As2,18.9
2850,Y1.4Th0.6C3,16.8
2851,Bi1.4Pb0.6Sr1.4Ca1Nd0.6Cu2O8.22,25.0
2853,La1Fe0.918Zn0.082As1F0.28O0.68,8.2
2854,V3Si0.76Be0.24,15.6
2855,Er0.7Pr0.3Ba2Cu3O7,61.1
2857,Mo0.1Nb0.9,6.55
2858,Tl0.4Rb0.4Fe1.6Se2,32.0
2859,Tm1Ni1.84Fe0.16B2C1,3.99
2860,Mo6S6Br2,13.4
2864,Rh2Sr1,6.2
2866,Cu0.75Ge0.25Sr2Y1.3Ce0.7Cu2O8.59,17.5
2867,Y1Sr2Cu2.65Fe0.35O7.1,46.0
2868,Nb0.72Pd0.28,1.89
2869,Ba1Fe1.774Co0.226As2,12.8
2871,Ce1Bi3.3Pb0.7Te6,2.9
2875,Sr0.4Eu0.6Fe1.76Co0.24As2,7.97
2876,Tm5Rh6Sn18,2.22
2877,Zr0.7Hf0.3V2,9.9
2881,La3Pr0.75In1,1.94
2883,Bi0.25Pb0.75,6.9
2884,Nb50Zr50,10.2
2885,Bi2Sr2Ca1Cu2O8.3,70.0
2886,Bi1.6Pb0.4Sr1.6Ca1Nd0.4Cu2O8.17,79.0
2888,Fe2As2Ca6Al1.32Ti2.68O12,36.0
2889,Pr1Os4Sb12,1.60125
2893,Fe0.95Se0.25Te0.75,8.5
2895,Ba2Ca1Cu2F1.4O4.6,106.0
2898,Sm1.1Ba1.9Cu3O7.05,78.5
2900,C1Hf0.25Nb0.75,7.0
2901,La3Ru1Pd3Ge13,4.8
2902,Ba1Fe1.9Co0.1As2,19.5
2903,Cu0.01V0.99,4.74
2904,Si0.005V0.995,4.75
2905,Y1Sr2Nb0.9Cu2.1O7.9,27.0
2906,Er2Ba4Cu7O14.92,89.0
2908,Pr1Os3.2Ru0.8Sb12,1.49
2909,Pb0.58Sn0.58Ti2Se5.16,3.6
2910,Sr0.81Nd0.19Cu1O2,18.0
2911,Nb3Al0.9Be0.1,19.8
2913,Co1Zr3,3.9
2914,Nb78.1Sn7.3Al7.3Ge7.3,12.5
2915,Ce1Rh0.9Ir0.1In5,2.04
2916,Nb0.47Ta0.53,6.2
2917,Zr2Co0.85Ni0.15,5.96
2918,Nd1Mo6S8,3.5
2921,La1.85Sr0.15Cu0.9825Co0.0175O4,13.2
2922,Th1Ir1.6Ru0.4,2.87
2926,C0.987Ta1,9.7
2927,Au0.2Nb0.8,6.45
2928,Ho0.5Y0.5Ni2B2C1,11.6
2930,Ca4Al2Fe2P2O6,17.1
2933,Zr1P1.25S0.75,4.85
2934,Gd1.25Ba1.75Cu3O6.98,28.0
2935,Y0.6Ca0.2Pr0.2Ba2Cu3O6.95,72.9
2938,Cd0.97Pd0.03,4.2
2939,Sn0.8In0.2Te1,3.035
2940,Y1Ba2Cu2.98Zr0.2O6.75,89.8
2941,Fe0.99Ni0.01Se0.82,6.65
2942,Pd0.52Sb0.48,1.65
2943,Bi2.15Sr1.8Ca1Cu2O8.15,93.0
2944,La1.865Ce0.135Cu1O4,21.2
2945,Ba1.6Sr0.4Yb0.7Ca0.3Cu3O6,41.0
2947,Bi1.7Pb0.3Sr2Ca1Cu2O0.23,75.75
2950,Nd1.85Ce0.15Cu0.999Ni0.001O4,19.75
2952,Nb3Rh1,2.742333333
2954,Y1Ba2Cu2.9955Zn0.0045O6.95,90.0
2955,Ce1Co0.7Ru0.3In5,2.13
2956,Y1Ba2Cu3H0.69O6.91,85.7
2957,Mg1C1Ni2.967Fe0.033,4.9
2959,Hg0.8W0.2Ba2Ca1Cu2O6.4,118.0
2960,Pb1Mo6.35S8,12.0
2961,La1.73Sr0.27Cu0.97Ru0.03O4,14.1
2962,Ce0.8Nd0.2Bi1S2F0.7O0.3,3.145
2963,Nb0.025Ta0.975,4.465
2964,Er1Ba2Cu2.88Zn0.12O6.92,52.0
2965,Ir5La1,2.13
2966,B6La1,2.05
2968,Nb50Ti25Zr25,9.7
2970,Lu1Ba2Cu3O7,88.24
2971,La1.889Sr0.111Cu1O4,29.2
2972,Y1Sr2Cu2.8Mo0.2O7,40.0
2973,Nb2.85Ta0.15Sn1,18.3
2974,C0.69Mo1,12.1
2975,Pr1Bi1S2F0.5O0.5,3.6725
2977,Au1Ga40Mo8,9.4
2978,Y1Ba1.8La0.2Cu3.97Zn0.03O8,16.2
2979,Y0.85Ca0.15Sr0.5Ba1.5Cu2.5B0.5O7,55.6
2980,Ba0.8Na0.2Fe2As2,11.8
2981,Sc0.3Y0.7Ir3.6Rh0.4B4,3.09
2983,Nb0.32Re0.68,4.5
2984,Hf0.33Nb0.67,17.0
2985,C1Hf0.8Nb0.8,7.8
2986,La1.845Ba0.155Cu1O4,26.0
2989,Sm1.71125Y0.13875Ce0.15Cu1O4,12.0
2991,Mo0.0006Re0.9994,1.6969999999999998
2992,Mo5Si1B2,5.8
2993,Y0.85Ca0.15Ba2Cu2.8Zn0.2O6.74,34.6
2994,Hg0.5Pb0.5Ba2Ca4Cu5O12.5,110.0
2996,Na2Cs1C60,11.32857143
2998,Eu1Fe2As1.6P0.4,29.0
2999,Y1Ba2Cu2.7Fe0.3O7.1,69.0
3000,Y1Ba2Cu2.97Zn0.03O6.47,29.8
3001,Pb2Sr2Y0.5Ca0.5Cu3O8.1882,62.0
3002,Ba8Si41Al5,6.0
3003,Y1Ba2Cu2.76Ga0.24O7,71.79
3004,Nb80Ga18Mn2,7.79
3005,C0.5Mo0.17Zr0.42,9.5
3006,Sr0.85Eu0.15Fe1.76Co0.24As2,12.5
3007,Ba0.5K0.5Fe1.7Zn0.3As2,7.86
3010,Sn0.1Fe1Se0.93,7.0
3012,Dy0.95Pr0.05Ba2Cu3O6.9,91.4
3014,B5Mo0.2Nb1.8,4.3
3015,La1.71Sr0.29Cu0.94Fe0.06O4,32.5
3017,Mo0.8448Zr0.0352B2,8.11
3019,Eu0.8Sr0.2Ba1.6Pr0.1Cu3O6.78,51.0
3020,Bi1.2Pb0.8Sr1.6La0.4Cu1O6.014,17.3
3023,Sm1Fe0.95Co0.05As1O1,2.565
3026,Ho0.9Ca0.1Ba2Cu4O8,87.0
3028,La1.943Sr0.115Cu1O4,24.9
3029,Cu0.1Bi2Se3,2.95
3031,In0.97Pd0.03,4.45
3032,Y1Ba2Cu3.98Fe0.02O8,70.5
3034,La1.8Sr0.2Cu1H0.1O4,35.5
3036,La0.7Y0.3Fe1As1F0.15O0.85,36.2
3037,Au2In1Y1,1.74
3038,B5Hf0.2Mo1.8,8.4
3039,La1.82Sr0.18Cu1O3.972,28.0
3040,Ru0.5Nb0.5Sr2Gd1.4Ce0.6Cu2O9.64,30.0
3042,Ti1N1,5.6
3044,La98Lu1Tb1,2.108
3045,Mg0.982Cu0.018B2,37.8
3047,Nd1.3Ba1.5Ca0.2Cu3O6.952,36.0
3048,Pb0.5Ca1Sr2Y0.5Cu2O6.93,30.0
3049,Bi1.1Nb1Se3.1,2.36
3050,Sm1Fe0.99Mn0.01As1F0.12O0.88,37.2
3051,V50Ti49Zr1,7.7
3052,Mo0.1W0.9C1,9.0
3054,La1.775Sr0.225Cu1O4,21.5
3055,Er1Ir4B4,2.22
3057,Ba6.62Si46,5.0
3058,In0.04Sn0.96Te1.01,1.14
3061,Sn0.9025Pb0.0475In0.05Te1,1.79
3062,Nd1Ba1.6Sr0.4Cu3O6.721,78.5
3063,La0.4Ce0.6Ru2,1.3
3064,Fe1Se0.082Te0.738,10.9
3065,La1.83Sr0.17Cu0.99Ni0.01O4,30.1
3066,Y1Ba2Cu2.97Zn0.03O6.67,39.8
3068,Ti56Nb30Si14,5.0
3069,Li1Hf0.2Zr0.8N1Cl1,18.2
3070,Fe1Se0.38Te0.62,13.5
3071,La1Fe1As1F0.6O0.4,40.0
3072,Fe1Se0.7Br0.3,5.0
3073,Bi1.6Pb0.4Sr2Cu2.7Mo0.3OY,96.9
3074,H0.9Pd1,4.11
3075,Ru0.452V0.548,4.2
3076,U6Fe0.5Co0.5,3.05
3079,In0.0293Pb0.9707,7.109
3080,Be8Ga1,5.7
3081,Y1Ba2Cu2.8Zn0.2O6.79,45.0
3082,Sr1Fe1.2Ru0.8As2,17.2
3086,Ta0.96Zr0.04,5.7
3089,Y1Ba2Cu2.8Zn0.2O6.88,54.7
3093,B12Y1,4.7
3094,Th0.1Zr0.9,2.58
3095,Bi1.7Pb0.3Sr2Ca0.9Nd0.1Cu2O8.27,76.67
3097,Dy1Ni0.74Bi1.78,4.2
3098,Bi1.7Pb0.3Sr2Ca0.8Y0.2Cu2O8,69.7
3099,Sr1Fe1.888Co0.112As2,2.0
3100,Sm1Fe1As1F0.09O0.91,42.0
3101,Tl1Ba1Ca1Cu2O5.5,114.0
3102,La1Rh1Si1,4.35
3103,Fe0.025Ti0.975,3.08
3105,Ba1Ge2,4.93
3107,La0.6Ca0.1Pr0.3Ba1.5Sr0.5Cu3O6.872,26.0
3108,La0.9989Ce0.0011Rh3B2,1.67
3109,La0.85Pr1Sr0.15Cu1O4,32.6
3110,Pr0.9La0.1Os4Sb12,1.7
3111,Ce0.4Nd0.6Bi1S2F0.7O0.3,3.67
3112,Sm1.05Ba1.95Cu3O6.87,89.75
3113,Y1Ba2Cu2.95Zn0.05O6.69,25.0
3114,Ba1Ni2Ge0.2P1.8,2.59
3115,Lu0.25Sc4.75Ir4Si10,7.91
3116,Os0.06Zr0.94,5.65
3118,Ru0.95Ir0.05Sr2Gd1Cu2O8,32.5
3119,La1.812Nd0.038Sr0.026Ba0.124Cu1O4,31.1
3121,Nb0.5Sn0.25Ta0.25,16.4
3122,V3Ga0.8Si0.2,11.9
3123,Bi2Sr2Ca1Cu1.97Ni0.03O8,77.0
3124,In0.75Pb0.25,5.65
3126,Y1Sr2Cu2.8Re0.2O7.2,63.0
3127,La0.72Ce0.28Ru2,1.278
3128,Nd1Bi1S2F0.1O0.9,4.24
3129,Hg0.75Mo0.25Sr2Cu1O4,50.0
3130,Y0.8Ca0.1Pr0.1Ba2Cu3O7.01,78.4