,composition,Tc
11267,Nd0.8Ca0.2Ba0.6La0.4Cu3O6.72,72.0
11269,Sc5Rh4Si10,8.405
11270,Mo1Rb0.3S2,6.25
11274,Er1Ba2Cu3O6.91,92.0
11275,Fe0.1Ni0.9Zr2,2.65
11276,Cu0.05Ti1Se2,1.4
11277,Y1Ba2Cu2.97Zn0.03O6.95,81.0
11278,Tl1Ba2Sr1Ca2Cu3O9,92.0
11279,Y0.92Ca0.08Sr2Cu2.5Fe0.5O6.92,8.0
11280,Mo0.96Ru0.04Ga4,7.63
11281,Cu1La1,6.0
11282,Ba8Si42Cu4,2.9
11283,La1Fe1P0.6As0.8F0.1O0.9,25.3
11286,La1.843Ba0.157Cu1O4,25.3
11287,Th1.8Er0.2C3,8.2
11288,La2.5Y0.5Ca1Ba3Cu7O16.574,80.0
11289,Re0.67Zr0.33,6.8
11290,Ca0.1Ba1.65La1.25Cu3O7.01,19.5
11293,Nb3Al0.9Zn0.1,18.1
11294,La3In0.8Sn0.2,7.8
11296,Bi4Sr3Ca2.9Tm0.1Cu4O16.36,80.0
11297,Pb0.52Tl0.48,5.54
11298,Y0.8Pr0.2Ba2Cu3O8.04,64.4
11300,La2.4Pr0.6Se4,1.49
11301,Li1Fe0.98Cu0.02As1,9.3
11302,La1.2Ba1.5Ca0.3Cu3O7.06,75.2
11303,Ca0.4Ba1.35La1.25Cu3O7.08,68.6
11304,Ca1.867Na0.133Cu1Cl2O2,20.0
11305,Sr2Y1Cu3O7.45,62.0
11306,Sm1Ba2Cu3O6.941,90.7
11307,Sr1Rb1Fe4As4,35.1
11309,Nb49.8Zr24.45Mo25.75,5.3
11310,Sr2Y1Ru0.95Cu0.05O6,11.9
11311,Y1La1.6Ba3.4Cu6O14.38,53.1
11312,Y1Ba1.9La0.1Cu3.972Zn0.028O8,48.7
11315,La0.95Gd0.05Ru2,1.61
11316,La1.25Ba1.75Cu3O7.07,40.0
11319,Y1Ba1.9Cu2.9Co0.1O6.92,66.0
11320,Nb3Sn0.4Sb0.6,12.4
11322,Nb3Sn1,17.846
11323,Y1Ba2Cu2.955Ni0.045O6.95,86.2
11325,In0.045Sn0.955Te1.01,1.2
11328,Nb4.4Re1,4.8
11329,Mg0.764Au0.236B2,24.5
11330,V0.72Si0.17Al0.11,10.3
11331,Pd0.12Ti1Se2,1.93
11332,Nb0.85Hf0.15N0.94,12.3
11333,Tm4Y1Rh6Sn18,2.61
11334,Y0.5Pr0.5Ba2Cu3O6.66,3.5
11337,Au0.16Te0.84,1.71
11338,Pb1Mo6Se8,3.77
11339,Mg1C1.25Ni3,7.35
11340,Sr0.4K0.6Bi1O3,11.42166667
11342,Lu0.772Dy0.228Ni2B2C1,11.77
11344,Cs0.1W1O2.9F0.1,4.4
11345,V0.767Ga0.214Al0.022,12.1
11346,Na0.75Co1H2.6O3.3,4.533333333
11347,Y1Ba1.5Sr0.5Cu3O6.85,72.9
11348,Ca7.16Ce2.84Pt3Fe10As18,18.9
11349,Ag7F0.25N0.75O10.25,1.04
11351,Nb3Al0.62Ge0.38,17.2
11352,Gd0.7Ca0.15Mo0.15Ba2Cu3O6.716,86.3
11353,Sn0.48Eu0.6Mo6.35S8,9.2
11355,Ba2Ca3Cu5O,106.0
11357,C0.9S0.1,36.5
11360,Gd0.31Sm1.54Ce0.15Cu1O4,14.2
11362,Bi2Sr2Ca1Cu2I0.43O8.21,63.1
11363,Bi3.925Co0.075S3O4,4.3775
11364,Bi1.8Pb0.2Sr1.6La0.4Cu1O6.182,13.7
11365,Ca1Pd2As2,1.27
11366,Ba0.1Na0.9Fe2As2,18.4
11367,Er0.7Ca0.3Ba2Cu3O6.83,55.7
11368,La1.96Sr0.04Cu1O4.05,40.0
11369,La0.9978Ce0.0022Rh3B2,1.07
11373,Y0.56Er0.44Rh4B4,9.64
11374,Y1Ba2Cu2.94Ni0.06O6.97,85.0
11375,Y1Ni1.98Fe0.02B2C1,13.4
11377,Al0.22Nb0.75Si0.3,19.2
11378,Os0.058Re0.942,1.93
11379,La1Os4As12,3.2
11381,Bi1Li1,2.4625
11383,Y0.8Pr0.2Ni2B2C1,8.68
11384,Lu0.55Pr0.45Ba1.7Sr0.3Cu3O6.92,35.0
11385,La0.9991Ce0.0009Pt1Si1,2.03
11388,Sr0.2La1.8Cu0.99V0.01O4,12.0
11392,Ir45Nb55,4.88
11394,La1Al2,3.23
11395,Sr0.875La0.125Cu1O2,36.9
11396,Nb3Sn0.9In0.1,18.1
11397,Dy1Ga6,2.95
11398,Ca1Fe1.888Co0.112As2,17.75
11401,H0.33Nb0.67,7.28
11402,Y2I1.2Br0.8C2,9.6
11403,Ba2Ca1Cu2F1.8O4.2,87.0
11407,Y2I1.25Br0.75C2,10.05
11408,Ti0.5W0.5C1,6.7
11410,Ge5La1,7.0
11411,Pb0.6Yb0.4Mo6Se8,9.2
11412,B5Mo1.7Ti0.3,7.1
11413,Ba0.95K0.05Fe1.782Co0.212As2,16.0
11414,Bi1.6Pb0.4Sr2Ca2Cu3O10.15,97.0
11415,Bi2Rh3.5S2,1.05
11416,Y0.9Ca0.1Sr2Cu2.5Fe0.5O6.9,20.0
11417,Ca0.4Ba1.15La1.45Cu3O7.21,43.9
11418,Ce1Rh0.2Co0.8In5,1.57
11422,Ga0.05Nb1Se2,5.6
11423,Pd2Y0.7Er0.3Sn1,3.8
11425,Y1Ba2Cu3F0.1O6.7,71.0
11426,Bi1.8Pb0.2Sr1.8La0.2Cu1OY,21.1
11428,Nb2Pd1S3Se2,1.17
11429,Ge0.25V0.75,6.5
11430,Ru1Ti1,1.07
11431,V0.7Si0.2Al0.1,10.6
11432,B3Ru7,1.986666667
11433,Fe1.013Se0.3Te0.7,13.0
11434,Hg0.7Pb0.3Ba2Ca2Cu3O8.35,130.0
11435,La1Pt0.8Ni0.2Si1,2.82
11436,Eu1Ba1.4Pr0.3Sr0.3Cu3O6.92,29.0
11437,Bi2Sr2Ca1Cu2O8.198,78.0
11438,La1.25Ca0.1Ba1.65Cu3O7.06,38.8
11439,Ta1Se1Te1,1.445
11440,Tl0.25Li0.25Ba2Ca2Cu2.25Si1.25O7.719,99.0
11441,Pd0.9Pt0.1Te2,1.65
11442,Ba0.5K0.5Fe1.9Zn0.1As2,30.15
11443,Be2Ru1,1.35
11444,Ta0.05Ti0.95,2.9
11445,Y1Ba1.96La0.04Cu3O6.96,93.6
11446,Nb80Ga14Co6,8.1
11447,Mo0.96Co0.04Ga4,7.07
11449,Pr0.8Sr0.2Fe0.925Co0.075As1O1,3.5
11450,Nd2Tl2Sr2Cu3O11,44.0
11451,Bi2Sr2Ca1Cu2I1O8,58.0
11454,Y0.5Ca0.5Ba1.1La0.9Cu3O7.15,70.0
11455,Mg1C0.906Ni3,3.38
11456,Pb0.7Hg0.3Sr2Nd0.3Ca0.7Cu2O6.6,90.0
11457,Zr0.75Pd0.25,3.0
11459,Y1Ba2Cu2.94Zn0.06O6.65,18.9
11460,Pr1Ni1As1H0.06O0.94,1.6
11462,Li0.55Zr1N1Cl1,15.0
11464,Bi2Te1,8.6
11465,Cu0.3La0.7,3.5
11466,La0.3Th0.7Ni1C2,6.3
11467,Nd1.25La0.6Th0.15Cu1O4,18.0
11469,Y0.6Pr0.4Ba1.2Sr0.8Cu3O6.89,52.0
11470,Li1Fe0.925Co0.075As1,7.66
11471,Er0.9Y0.1Pd2Sn1,1.6
11472,Nd1F0.3Bi1S2O0.7,4.11
11473,Lu0.5Y0.5Ni2B2C1,14.9
11474,Th1In1.5Sn1.5,1.03
11475,Ba0.47K0.53Bi1O3,11.0
11476,K0.9La0.1Bi1O3,5.74
11477,Zr1Ru4P2,11.0
11479,Tl0.5Pb0.5Sr2Eu1.8Ce0.2Cu2O9,40.0
11480,Mg0.7Zn0.3C0.99Ni3,2.5
11484,La1.85Sr0.06Ca0.05Ba0.04Cu1O3.99,30.0
11485,C0.98Nb1,11.68
11486,Y0.95Ga0.05Ba2Cu4O8,75.0
11488,Nb25Ti70Ta5,7.85
11491,In1V3,13.9
11492,La1Ir1As1,3.1
11493,Sm1Ba1Sr1Cu3O6.94,80.0
11497,Fe2As2Ca5Sc2Ti2O10,36.0
11498,Lu0.7Ca0.3Ba2Cu3O6.88,45.0
11499,H0.51Nb0.8Pd0.2,3.4
11500,Cu0.057Ti1Se2,3.49
11501,Ba1Fe2As1.06P0.94,20.8
11503,Ca0.9La0.1Fe1As2,34.0
11504,Y1Ba0.8Sr1.2Cu3O6.8,82.0
11506,Nb1N1.34O0.27,11.3
11508,Sc1Fe3Si5,4.3
11509,Cu1Co1.99Rh0.01S4,2.61
11510,Nb0.92Hf0.08N0.93,13.7
11511,Fe0.97Co0.03Se0.3Te0.7,9.24
11512,Be2Nb1,2.15
11513,La0.9Y0.1Fe0.995Mn0.005As1F0.11O0.89,24.1
11514,Ru0.925Sn0.075Sr2Gd1Cu2O8,37.8
11515,Os0.02Re0.98,1.807
11516,Sr1.5Ba0.5Y1Cu2.8Ti0.2O7,35.0
11517,Pb3.9Ag1.1Bi6Se14,1.7
11518,Nb2.85V0.15Au1,8.4
11521,La1Fe1P0.6As0.6F0.1O0.9,26.9
11522,Y1La1.4Ba3.6Cu6O14.2,64.0
11524,Ru0.445V0.555,3.48
11526,Zr28.4V56.8Nb14.8,8.56
11527,Th7Fe0.72Co2.28,2.27
11528,Nd1.85Ce0.15Cu1O4.03,19.3
11529,Nd0.75Pr0.25Ba2Cu3O6.96,11.7
11530,Cd1Tl0.7Ba1Cu1O4.5,52.5
11531,Nb0.85Rh1.15,3.0
11532,Mo0.05Rh0.04Ti0.91,3.3
11533,La0.92Lu0.08,3.72
11535,Bi0.33Hg0.67Sr2Y1Cu2O7,74.0
11536,Th3Os4Ge13,5.6
11537,Re0.9V0.1,9.4
11538,Bi0.05In0.95,4.65
11540,Tl0.5Pb0.5Sr4Cu2C1O10,71.0
11542,Bi1.95Sr1.65La0.4Cu1O6.36,23.0
11543,Sm0.8Pr0.2Ba2Cu3O6.7,25.6
11544,Sn1Mo6S8,12.6
11546,La1Fe0.98Ru0.02As1F0.11O0.89,27.4
11547,Ba1Fe1.948Mo0.052As2,7.4
11548,Sm0.9Th0.1Fe1As1O1,51.4
11553,La1F0.5Bi1S2O0.5,9.25
11554,Pb0.5Sr1.8Ba0.2Y0.85Ca0.15Cu2.5O6.98,25.0
11556,Ir1Mo3Nb1Pt1,5.82
11557,Ca1Ge3,3.4
11560,Pb2Sr2Y0.5Ca0.5Cu3F0.5612O7.649,72.0
11561,Sm1Ba2Cu3O6.89,90.0
11562,K2Mo15Se19,2.1
11564,Ru0.8Sr2Y1Cu2.2O7.8,43.0
11565,Lu1Ni1.97Co0.06B2C1,14.0
11566,Th0.95Y0.05,1.4
11567,Th1Ru3B2,1.79
11568,V3Si0.5Ga0.5,8.6
11570,Bi0.34In0.66,4.0
11572,Fe0.5Co0.5Zr2,1.26
11573,La2.3Gd0.7Ca1Ba2.8Sr0.2Cu6.86In0.14O16.536,72.0
11574,Bi1.8Pb0.2Sr1.45La0.55Cu1OY,28.6
11575,Ca8.87La1.13Pt3Fe10As18,32.8
11576,La1Fe1As1H0.44O0.56,21.0
11577,Bi2Sr1.8Ca1Yb0.2Cu2O8.26,90.1
11578,Pr4Fe2As2Te0.88O4,25.05
11580,Nd1Ba1.8Ca0.2Cu3O6.866,73.0
11581,Na0.29Co1H2.6O3.3,3.955
11583,Al0.66Ge0.22Nb3.1,20.29
11584,Ti1Rh1Si1,5.1
11585,Ir1.05Nb0.95,4.75
11586,Y1Ba2Cu2.89Co0.11O7,64.0
11587,Ca1.825Na0.175Cu1Br2O2,10.5
11589,La1Pt1.85Ge2.15,1.86
11590,Y0.9Pr0.1Ba2Cu3O7,84.1
11591,La1.5Pr0.5Ca1Ba2Cu5O11.782,57.7
11594,Nb3Sn0.91Ga0.09,18.3
11595,Dy1Mo6S8,1.6
11596,Tl2Ba2Cu1O5.947,50.0
11597,Tm1Ba2Cu3O6.99,89.8
11598,La1Er1Ba2Ca2Cu6O14.122,79.0
11600,Lu0.574Dy0.426Ni2B2C1,7.54
11601,Y1Ba1.9La0.1Cu4O8,61.0
11602,Nb3Al0.71Ge0.29,20.7
11604,Ru2Sc1,2.09
11606,Bi2Sr1.8Ca1Nd0.2Cu2O8.26,87.7
11608,La2.3Yb0.1Ba2.3Ca0.2Cu5O11.805,25.0
11609,Yb0.6Lu0.4Ba2Cu3O6.92,89.7
11610,Tc0.97Ti0.03,10.56
11612,Nb25Zr75,8.3
11613,Sm1La0.802Sr0.198Cu1O4,17.2
11614,Ce0.2Nd0.8F0.5Bi1S2O0.5,4.44
11616,Be0.62Si0.38,9.0
11617,Na0.34Co1H2.6O3.3,2.65
11619,Co1Ti2,3.44
11620,Bi1.8Pb0.2Sr2Ca1Cu1.92Fe0.08O8,33.8
11621,Ti0.4V0.6,7.38
11622,Ca2Al3Si4,6.2
11623,La1Co1.4Fe0.6B2,4.0
11625,Rh17S15,5.52
11626,Y5Rh6Sn18,3.14
11627,Sm0.9Ca0.1Ba2Cu2.8Zn0.2O6.85,42.0
11628,Ba0.82K0.18Bi0.53Pb0.47,22.8
11629,La1Pb1.5Sn1.5,1.18
11630,Ir2Nb3,9.8
11632,Nb0.79Al0.164Ga0.057,20.7
11634,Ga0.265V0.735,13.6
11636,Nd0.4Ce0.85Co1In5,1.42
11637,Mg12Ir19B16,4.3
11638,Sr1Fe1.6Pt0.4As2,7.0
11640,Gd1Ba2Cu3O6.99,92.45
11641,Ba1Hg1,2.32
11643,Mg1C1Ni2.967Ru0.033,6.1
11645,Y0.83Ca0.02Pr0.15Ba2Cu3O6.95,83.0
11647,Ca1.808Cu0.904Cl1.904Na0.096O2.192,26.0
11648,Fe0.5Ba2Sm1Cu2.5O7.54,8.0
11649,Y0.75Ca0.25Ba2Cu2.75Zn0.25O6.76,42.0
11650,Lu4.5Th0.5Ir4Si10,4.88
11651,Rh27Zr73,3.57
11654,Y1.1Ba2Cu3O6.87,95.9
11657,Tm0.99Ca0.01Ba2Cu4O8,79.2
11658,Y1Ba2Cu2.85Co0.15O6.92,71.0
11660,Na1Fe0.98Co0.02As1,18.8
11661,Ce1Fe0.95Co0.05As1F0.1O0.9,23.5
11662,Ce0.9La0.1Rh1In5,1.6
11664,Be30Zr70,2.8
11667,Zr0.99V0.01B2,6.4
11668,La1.85Sr0.15Cu0.996Al0.004O4,30.4
11669,Nd1Ba1Sr1Cu3O7.02,49.9
11671,Nb2S1C0.82,4.43
11673,B2Mg0.5,36.0
11674,Ba0.5K0.5Fe1.8Ni0.2As2,11.1
11675,Li0.17Zr1N1Cl1,14.2
11679,Mo0.45Re0.55,6.185
11680,Ca1Al1Si1,6.183529412
11682,Cu50Sn50,3.26
11683,Ba1.6Sr0.4Yb0.95Ca0.05Cu3O6.58,55.0
11687,Ga0.233V0.767,13.3
11688,Y1Ba2.01Cu2.806Cr0.194O7.3,62.0
11689,Cd0.18Tl0.82,2.54
11691,Y0.6Cd0.4Ba2Cu3O7,91.7
11694,La1.82Ca1.16Y0.02Cu2O6,40.0
11696,Y1Ba2Cu3H0.53O6.54,43.8
11697,Pr1.85Ce0.15Cu1O3.98,19.53333333
11698,Rh1Zr2,11.165
11699,Y0.8Ca0.2Ba2Cu4O8,87.8
11700,Ta1Re1Si1,4.4
11701,Mo0.65Pt0.05Re0.3,8.9
11703,Pd1Te1.08,1.88
11704,Nb0.405Ta0.595,5.72
11705,Sr0.6Ca0.333Cu1O2.2,98.0
11706,Hg0.8Bi0.2Ba2Cu1O4.2,85.0
11711,Fe1Se0.13Te0.87,6.0
11712,Nb0.45Re0.55,6.2
11716,Sn0.87Ag0.1Te1,1.83
11717,In0.5Sn0.5,7.175
11718,Y2Br2C2,5.05
11719,Fe4.97Ga25V70.03,8.59
11720,Y1Fe1As1O0.85,45.2
11723,Mg1C1.5Ni3,8.15
11726,Ba0.805K0.195Fe2As2,15.0
11727,Y1Ba2Cu2.52Al0.48O6.74,68.0
11728,Bi2Sr2Ca1Cu1.98Fe0.02O8,71.5
11729,K0.22Zr1N1Cl1,15.2
11730,Ba1Ni2As1.792P0.208,3.24
11731,Pd1.75Te2,2.25
11732,Bi0.33Hg0.67Sr2Y0.5Ca0.5Cu2O7,92.0
11733,Nb80Ga19.7Fe0.03,17.3
11736,Nd1.15Ba1.85Cu3O6.96,76.8
11739,H0.69Nb0.8Pd0.2,3.56
11740,Nb0.75Ti0.25N0.94,16.1
11743,Y1Ba1.65Sr0.35Cu4O8,80.8
11744,As0.15Ga0.15Nb3Sn0.7,18.01
11748,Si0.25V0.75,16.83714286
11750,Dy0.85Tm0.15Ni2B2C1,2.3
11752,Ba0.85Na0.15Fe2As2,5.3
11753,Y1Ba2Cu2.979Zn0.021O7,80.2
11754,Ho0.85Ca0.15Ba2Cu4O8,87.0
11755,Y1Ba2Cu2.91Zn0.09O6.7,20.0
11756,Sn0.923In0.065Te1,1.8
11757,K2.75Ba0.25C60,15.0
11758,Ta0.6W0.4C1,10.0
11759,Y0.9Ca0.1Ba2Cu3O6.67,82.0
11761,Eu0.6Pr0.4Ba1.6Sr0.4Cu3O7,29.0
11762,Al0.95Nb3Sb0.5,17.81
11763,Al0.03Ti0.81V0.16,5.1
11764,Bi12S11O18,4.0
11765,In1.15Te1,2.6
11766,V0.65Ge0.25Al0.1,5.5
11769,Eu1.8315Y0.0185Ce0.15Cu1O4,4.3
11770,Eu0.7Sr0.3Fe1.715Co0.285As2,10.2
11771,Ce1Fe1As0.8P0.2F0.05O0.95,20.6
11772,Lu1.94Sc0.06Fe3Si5,4.83
11773,Sc3.5Dy1.5Ir4Si10,4.465
11774,Ba1.6Sr0.4Yb1Cu3O6.96,82.0
11775,Y0.9Ca0.1Ba2Cu3O7,81.8
11776,Nb0.89Al0.11N0.84O0.16,16.7
11778,Nb1C0.5N0.42,17.0
11779,Nb3Sn0.6Al0.4,15.4
11780,Y1Ba2Cu2.919Zn0.081O6.8,24.0
11781,Mo1.8W0.2B1C1,6.82
11782,La1.65Ca0.15Nd0.2Cu1O4,30.0
11783,Nb3Al0.7Be0.3,14.0
11784,V3Si0.6Ge0.4,8.7
11785,Cu1.3K0.2Co1.5S4,4.4
11786,La1.5Ba1.1Ca0.4Cu3O6.969,40.0
11787,La0.92Tm0.08Ru3Si2,6.8
11789,Bi2Pb0.1Sr1.9Cu1OY,8.4
11790,Mo0.6Pt0.1Re0.3,8.5
11791,Y1Ba2Cu2.8Cr0.2O7,87.5
11792,Ga1V1,16.45
11793,Zr1Ru0.99Rh0.01P1,10.1
11794,Nb77.3Sn18.1Al2.3Ge2.3,13.0
11795,Er0.97Ca0.03Ba2Cu4O8,80.0
11796,Y1Ba2Cu2.9Ni0.1O6.77,44.0
11797,Ti0.64Nb0.26Ta0.1,8.56
11798,Bi2Sr1Ca2Cu2O8.229,76.4
11801,La1.82Ca1.18Cu2O6,55.0
11802,C1W2,3.835
11804,La0.98Pr0.02Ru2,1.92
11805,Ta1V2,2.133333333
11806,Nd1Ba2Cu3O6.09,90.5
11809,Y2Ba4Cu7O14.97,93.1
11810,Sn0.8798Pb0.0002In0.12Te1,1.76
11811,Ho1Ni1.993Co0.014B2C1,5.0
11814,Y1Ba2Cu2.95Fe0.05O6.84,76.4
11815,Y1Sr2Cu2.75Re0.25O7,37.0
11817,Hf0.1Ta0.9,5.6
11819,Y1Ni1.9Ru0.1B2C1,7.0
11820,Bi2Sr1.6Y0.1Ca1.3Cu2O8.23,89.0
11821,Nd0.95La0.9Th0.15Cu1O4,16.0
11824,Gd1Ba1.5Sr0.5Cu3O6.72,32.0
11825,Mo1.94Hf0.06B1C1,5.8
11826,Y0.95Pr0.05Ba2Cu3O6.85,85.5
11828,Y2Ba4Cu6O13.9,93.0
11829,Nd1Ba2Cu3O7.04,82.5
11831,N12.8Nb1,16.1
11832,In0.02Pb0.98,7.15
11833,Lu1Ni1B0.8C1.2,3.2
11834,B1C1Mo2,5.933333332999999
11837,Ga0.21V0.79,10.0
11838,Pt1Zr1,3.0
11839,Nb2Sn1Ta1,16.4
11840,La1.85Sr0.15Cu0.995Fe0.005O4,30.82
11844,Nd1.5Ba1.5Cu3O7.12,15.4
11845,Al0.992Zn0.008,1.1320000000000001
11846,Pr0.915Ce0.085Pt4Ge12,4.61
11847,Nb0.14Re0.86,8.5
11848,La1Mo6Se8,11.23333333
11849,Zr1P1.1Se0.9,5.34
11854,La0.8Y0.2Fe0.992Mn0.008As1F0.11O0.89,22.7
11856,La1.795Sr0.205Cu0.98Ru0.02O4,15.5
11857,Y0.65Pr0.35Ba2Cu3O7.01,44.5
11858,Sn0.67Ag0.33Te1,1.95
11861,Re2Sc1,1.71
11862,La1.4Ba1.5Ca0.1Cu3O6.982,51.0
11863,Nb80Ga19Mn1,11.2
11865,Er0.8Hf0.2Ba2Cu3O6.772,78.8
11866,Y0.8Ca0.1Pr0.1Ba2Cu3O6.95,81.4
11867,Nb0.375Sn0.25V0.375,7.4
11870,La2.57Ca0.86Ba2.57Cu6O14.2,80.0
11872,La1Ni0.8Cu0.2C2,3.45
11876,Nb25Ti40Zr35,7.7
11877,B5Mo1.9Zr0.1,8.9
11878,Sr0.8K0.2Fe2As2,13.6
11879,Hg1Sm0.5Pb2,5.7
11880,Zr1Ir1Si1,2.04
11881,Sn1.17Nb1S3.17,2.75
11883,K0.74Fe1.66Se2,31.0
11884,Hg0.2Cr0.8Sr2Cu1O4,53.6
11887,C0.6Pd1,1.3
11890,Ru0.95Co0.05Sr2Gd1CuO8,5.5
11892,Na1Fe0.92Co0.08As1,7.53
11893,Nd0.75Pr0.25Ba2Cu3O6.85,9.2
11895,B1W1.26Re0.74,5.1
11896,Fe1.01Se1,8.25
11897,Cr0.0018V0.9982,5.15
11898,Nb0.9Pd0.1,3.42
11899,Bi1.4Pb0.6Sr2Ca0.4Nd0.6Cu2O8.24,65.0
11900,Y1Ba2Cu2.95Ni0.05O6.94,85.0
11901,Au0.2Sb0.6Te0.2,6.6
11902,Pb1Tl0.075,6.98
11903,Pr0.74Gd1.11Ce0.15Cu1O4,7.5
11904,Mg0.93Li0.07B2,37.8
11905,Tl0.58Rb0.42Fe1.72Se2,32.5
11906,Ti0.615V0.385,7.07
11907,Sn0.8In0.2Te0.75Se0.25,3.7
11910,Tl1Sr2Ca0.65Th0.35Cu2O7,55.3
11911,Er1Ba2Cu2.85Zn0.12Fe0.03O6.94,50.0
11912,B1Mo1Re1,5.09
11915,Tl0.5Pb0.5Sr2Ca1Cu2.98Ni0.02O7,63.5
11916,Mo32Ru48P20,4.68
11919,Y1Ba2Cu3O6.409,26.0
11920,Mo0.65Pt0.1Re0.25,7.4
11921,Nb1C0.2N0.8,17.6
11922,Y1Ba2Cu2.94Ni0.06O7.01,85.0
11923,Y2I1.75Cl0.25C2,10.7
11924,Pb2Cu0.9La1.1Cu2O7.42,18.1
11926,Ge2La1,1.976666667
11931,Ba1Ni2P2,2.686666667
11932,Nb3Al0.967Ga0.033,19.0
11933,Y0.5Pr0.5Ba2Cu3O6.61,4.6
11934,La1.77Sr0.23Cu0.94Co0.06O4,32.5
11935,Nb3Sn0.5Zr0.5,16.6
11936,La1.782Sr0.218Cu1O4,25.0
11937,La1.98Sr0.02Cu1O4.09,40.0
11938,Lu0.8Pr0.2Ba1.7Sr0.3Cu3O6.93,75.0
11944,Y1Rh2Si2,1.4
11945,Bi1.9Pb0.2Sr1.9Cu1OY,4.7
11947,Y1Ni0.82Bi2,4.1
11948,Os2Zr1,2.95
11949,La3Co4Sn11.7In1.3,4.6
11951,Ba1Fe2As0.72P1.28,8.545
11952,Hg0.85Re0.15Ba2Cu1O4.55,93.7
11953,Mo0.75Rh0.25,6.6
11954,Sn0.768Pb0.192In0.04Te1,2.57
11955,In1.05Te1,3.41
11956,Y1Ba2Cu2.91Zn0.09O6.65,10.0
11957,Bi2Sr2Ca0.8Yb0.2Cu2O8.26,91.65
11961,Y2Ba4Cu7O14.19,13.9
11962,Mo0.95Hf0.05C0.65,8.81
11963,Bi2Ca2.5Gd0.5Cu2O8.33,4.0
11965,Mo0.16Ti0.84,4.213
11967,Sr1Pd1.86Pt0.14Ge2,2.6
11968,Tc0.25Ti0.75,2.7
11977,B5Nb1.9Ti0.1,4.0
11978,Y0.85Ca0.15Ba2Cu3O6.9,79.0
11979,Sn1Nb1S3,2.75
11980,Tl0.7Bi0.3Sr4Cu2C1O10,49.0
11982,Y1Ba2Cu2.5Fe0.5O7.35,80.0
11986,Ba1Pb0.4Hg0.35Bi0.25O3,9.97
11988,Na0.75Co0.9995Ir0.0005H2.6O3.3,4.59
11991,Y1Ba1.6La0.4Cu3O7.05,52.0
11992,Na0.65Fe1.93Se1.4S0.6,25.1
11995,Ca1Al0.4Ga0.6Si1,3.45
11997,Hg0.6Pb0.4Ba2Ca2Cu3O8.4,120.0
11999,Y0.95Ce0.05Ni2B2C1,13.8
12000,La0.6Sm0.4Bi1S2F0.5O0.5,3.255
12001,Y2C2I2,9.985
12003,Sn0.6001Pb0.1999In0.2Te1,3.59
12004,Pb0.01Sn0.99,3.752
12005,La1Ba1.5Ca0.5Cu3O6.79,40.0
12006,Yb1Ba2Cu2.943Zn0.057O6.9,64.3
12009,Ba2Bi2.5Sb0.5,4.25
12010,V75Si20Ga5,12.33
12011,Y1Ba2Cu2.94Ni0.06O6.9,86.3
12012,Eu1Fe1.4As2P0.6,28.7
12015,La1.9Sr0.1Cu0.9975Zn0.0025O4,23.655
12016,Ca2Al2.39Si4.61,5.4
12017,Ba1Fe1.936Ni0.064As2,14.83333333
12019,Sr0.2La1.8Cu0.95Fe0.05O4,30.0
12022,Bi1.95Sr1.65La0.4Cu1O4,36.0
12023,Sm1Fe0.8Ru0.2As1F0.15O0.85,17.7
12024,Ba1Fe1.3Ru0.7As2,19.7
12025,Sm1Fe0.84Ir0.16As1O1,17.3
12026,Y0.7Pr0.3Ba2Cu3O6.942,60.6
12027,Ga0.205V0.795,9.7
12029,Ga1Sr2Y0.6Ca0.4Cu2O7,38.0
12030,La0.9647Ce0.0333Sn3,3.03
12031,Pb2Sr2Eu0.75Ca0.25Cu3O8.1,74.0
12033,In1Te1.002,3.5
12036,Cr0.1Nb0.9,4.83
12037,Ru1Sr2Eu1.4Ce0.6Cu2O10,44.0
12038,Ti55Nb30Si15,4.9
12039,In0.2Si0.8V3,16.2
12041,C3Y2,14.85625
12042,Th1Pd3B3C1,21.5
12043,La1.85Sr0.15CuNi0.04O4,2.5
12044,Ce1F0.7Bi1S2O0.7,2.68
12045,La2.1Y0.7Ca1.4Ba2.8Cu7O16.433,79.0
12046,Y0.28Er0.72Rh4B4,9.05
12047,Bi2Sr2Cu1O6.14,14.0
12048,Nb0.5V0.5N0.94,1.86
12050,Ca1Rh1.2Sn4.5,8.7
12051,Pr1Ba2Cu3O6.8,81.0
12052,Y1Ba2Cu2.99Zn0.01O7,86.5
12057,Ba1Fe1.776Co0.224As2,11.1
12058,Th90.9Tm9.1,1.07
12060,Hf1Re6,6.2
12061,C0.78W0.22Si1,2.9
12062,Ni1Zr3,3.35
12063,Eu1.55La0.3Ce0.15Cu1O4,10.0
12064,Bi4Sr4Ca1.9Tm0.1Cu4O16.28,83.9
12068,La3Co2Sn13,1.95
12069,Sn0.8075Ge0.1425In0.05Te1,1.09
12070,Er1Ir3.6Rh0.4B4,1.83
12071,Hg0.75Ba2.07Ca2.07Cu3.11O8.187,135.4
12072,Cr0.025Ti0.975,3.5
12073,H0.63Nb0.87Pd0.17,3.89
12074,Nb3Rh0.95Au0.05,2.52
12077,Nb0.25Bi2Se3,3.275
12078,Nb1C0.5N0.36,15.6
12079,La2.9745Gd0.0255In1,6.92
12080,Pb0.5Cu0.5Sr1La1Cu1O5.03,36.7
12081,Fe1.05Se0.15Te0.85,14.1
12083,La1.885Sr0.115Cu0.9975Zn0.0025O4,22.46
12084,Y1Ba2Cu2.97Zn0.03O6.98,80.0
12087,La1.55Sr0.15Na0.3Cu1O4,37.0
12088,Cu0.5Ge0.5,3.3
12092,Nb3Rh0.98Ir0.02,2.43
12093,Y1Ba1.85Cu2.85Co0.15O6.94,55.0
12094,Lu4Ir6Sn19,3.2
12096,La3Sn1,6.2
12098,B0.048C0.952,6.6
12099,Er0.08La0.92,1.435
12100,Hf1Os1As1,3.2
12101,K1Tl1.5C4,2.63
12102,Pb0.6Cu0.4Sr1.1La0.9Cu1O5.07,33.9
12103,Ni0.05Pd0.95Te2,1.4
12105,Pb0.252Sn0.588In0.16Te1,3.92
12107,Eu1Ba2Cu3O6.97,94.77
12108,La0.8Y0.2Fe0.99Mn0.01As1F0.11O0.89,25.3
12110,La1.82Sr0.18Cu0.99Ru0.01O4,28.3
12113,Nb2Pd1S5,6.125
12114,Sc1Ru4B4,7.27
12115,Ru7B3,3.05
12116,C1Ta0.2Zr0.8,2.3
12117,Nb1Ru1Si1,2.65
12119,Nb1O1,1.38
12120,Ba1Fe1.55Ru0.45As2,8.18
12121,Nd1.85Ce0.15Cu0.994Ni0.006O4,8.4
12122,Y1Ba2Cu2.9Fe0.1O6.62,4.2
12123,Pd1.25Te2,2.2
12124,Y0.3Pr0.7Sr2Cu2.85Re0.15O7,15.8
12126,La2.94Ce0.06In1,5.58
12127,La1.562Nd0.288Ca0.106Ba0.044Cu1O3.98,23.0
12129,Y0.6Pr0.4Cu2.85Re0.15O7,33.9
12130,Ir0.1Nb0.9,2.3
12131,Mo0.95Zr0.05C1,13.2
12132,La1Fe1As1F0.055O0.945,7.0
12134,La1.85Sr0.15Cu1O3.993,20.0
12135,Rb0.22Ti1N1Br1,16.3
12136,Nb0.1Ta0.9,4.55
12138,Tl2Ba2Cu1O5.943,56.0
12139,Sr0.8Mo1S2,5.6
12140,La1Pt0.7Ni0.3Si1,2.775
12144,Y1Ba1.5La0.5Cu3O7.06,22.0
12145,Bi2Sr2Ca0.9Y0.1Cu2I1O8,67.0
12146,Nd1Fe1As1F0.12O0.88,50.0
12147,Tc0.2W0.8,3.85
12149,Y1Ni1.8Pd0.2B2C1,14.0
12150,Y2Al1Ge3,4.5
12151,V0.75Si0.22Al0.03,13.3
12152,Y2I1.5Cl0.5C2,8.25
12153,Cu1V2S4,4.45
12154,Sr1Fe1.7Pt0.3As2,12.6
12155,Ni0.02Ta1Se2,2.5
12157,Ga0.8Sb0.2,6.18
12160,Mo0.94Fe0.06Ga4,2.6
12161,Ce0.93Gd0.07Ru2,3.38
12163,Er1Ba2Cu3O6.6,75.0
12164,Si1C1,1.425
12165,Sr1Pd1.92Pt0.08Ge2,3.23
12166,Y1Ba1.6Sr0.4Cu4O7.9,79.0
12167,Y1Ba1Sr1Cu2.9Mo0.1O7.16,86.0
12169,Ce0.987Yb0.013Co1In5,2.13
12170,Nb5Zr2Be8,5.2
12171,Tm4Rh6Sn19,2.3
12172,Mg1C0.98Ni3,6.5
12173,Al0.9As0.05Ga0.05Nb3,19.2
12174,Hg0.7Pb0.3Sr2Ca2Cu3OY,110.0
12175,C1.55Th0.3Y0.7,17.0
12176,La1.81Ho0.04Sr0.15Cu1O4,32.0
12178,C1Mo0.75Ta0.25,8.5
12179,Sn0.75Ag0.25Te1,2.2
12182,Zr1P0.6Se1.4,4.11
12184,Mg1C1Ni2.95Fe0.05,3.72
12185,Ca9.75Lu0.25Pt3Fe10As18,10.9
12188,Al2Cu1,1.02
12189,Mg0.927Al0.073B1,33.0
12190,Mg1B1.868C0.132,33.15
12191,Na0.86Fe1As1,26.0
12192,La1Pt2Ge1.8Sn0.2,1.3
12193,Ba0.75K0.25Fe2As2,28.45
12194,Ga0.32Nb0.68,20.2
12196,Bi0.65Pb0.35,8.8
12198,Nb0.2W0.8C1,11.0
12199,Sr2Ca3Cu4F3.8O8,95.0
12201,N1Zr1,9.85
12202,Mg1B1.84C0.16,33.0
12203,Y2Br1.75Cl0.25C2,4.7
12205,Nb3Pd0.7Se7,2.1
12207,Si1Th1,2.41
12209,U1Rh2Si2,1.1
12210,La1Bi1Se1S1F0.5O0.5,3.6
12211,Nd1Bi1S2F0.6O0.4,4.35
12212,Cu0.75Co0.25Sr2Y1.3Ce0.7Cu2O8.43,24.0
12214,Ba0.9K0.1Pb1O3,30.0
12215,Rh0.106Ti0.894,4.28
12217,Rh0.4Ta0.6,2.35
12220,Eu0.7Ca0.3Ba2Cu3O6.13,26.0
12221,Y0.9La0.1Ba2Cu3O6.62,92.35
12222,Mo0.07Zr0.93,4.91
12223,Nb0.18Re0.82,9.116666667
12225,Cu0.25C0.75Ca3Cu2O6.85,47.0
12226,Yb0.9Ca0.1Ba1.4Sr0.6Cu4O8,85.0
12227,Al0.25La0.75,3.98
12228,Bi0.3Zr0.7,1.51
12229,La2Cu1FO4,40.0
12230,Pd1Te1.02,2.56
12232,Y0.9Ca0.1Ba2Cu3O6.9,88.6
12233,C0.002N0.937Ta1,8.91
12234,Ca1Ga0.74Si1.26,3.5
12235,U1Be12.9896B0.0104,1.89
12236,Au0.3Pd0.033Te0.666,2.6
12237,Nd1.3Ba1.3Ca0.4Cu3O6.912,13.0
12238,Lu1Ni0.9Cu0.1B1C1,3.3
12239,La0.9Y0.1Fe1As1O0.6,25.6
12240,Bi1Sr0.75Nd0.25Cu1OY,14.96
12242,Tl0.4La1Sr1Cu1.6O5,30.0
12243,Sr1Ga0.65Si1.35,2.58
12244,Ca0.1La1.25Ba1.65Cu3O7.06,38.0
12245,Bi0.04Sn0.96,3.86
12246,La1Ba1.3Ca0.7Cu3O6.92,73.0
12247,Fe1.053Se0.3Te0.7,12.5
12248,Gd1Fe1As1F0.2O0.8,48.35
12250,Ba0.52K0.48Bi1O2.93,20.6
12251,Lu4.5Y0.5Ir4Si10,3.9
12252,Nb1Sn2,2.64
12253,Y0.8Ca0.2C2,2.82
12254,Lu1Ni1B0.9C1,2.6
12255,Y4Os6Sn19,2.5
12256,Bi1.5Ga0.5Sr1.8Ca1.2Cu2O8,41.0
12258,La5B2C6,6.9
12259,Dy1Rh2Ir2B4,4.53
12260,La0.8Y0.2Fe0.975Mn0.025As1F0.11O0.89,10.1
12261,La0.997Gd0.003Al2,1.89
12263,Y0.95La0.05Ba2Cu3O6.58,93.65
12264,La1.836Sr0.164Cu1O4,36.9
12266,Ir0.04Ti0.96,1.6
12267,Ni29Zr71,2.78
12268,Er0.76Gd0.24Rh4B4,4.18
12269,Ba0.511K0.489Fe1.772Co0.228As2,22.0
12270,O3Rb0.27W1,1.98
12271,Bi0.6Nd0.2Tb0.2Pb1Sr2Ca2Cu3O10,107.5
12274,La0.96Gd0.04Ru2,2.27
12275,Cu1Rh2S4,3.7939999999999996
12278,Ce1Bi1S2F0.4O0.6,2.81
12279,Y0.5Ca0.5Ba1.5La0.5Cu3O6.94,82.0