,composition,Tc
16198,Y1Ba2Cu2.85Ga0.15O7,78.49
16199,La0.94Nd0.06Pt1Si1,2.56
16200,Eu1.3Ba1.7Cu3O7.15,39.5
16201,Bi2Se3,4.898
16203,Ti0.99Nb2.01Sb1,2.84
16204,Fe1Se0.82Br0.18,5.0
16205,B12Li2.5,6.62
16207,Ca1Fe0.85Rh0.15As1F1,18.4
16208,Nd1.85Ce0.15Cu1O4.028,21.1
16209,Nb5Si2.6B0.4,6.4
16210,Nd1Bi1S2F0.29O0.71,5.2
16211,Au1Th2,3.365
16213,Er0.97Gd0.03Rh4B4,8.06
16215,Ba1Fe1.824Co0.176As2,21.05
16217,Ca0.4Ba1.25La1.25Cu3O7.05,60.0
16218,La1.9Sr0.1Cu1O4.023,40.0
16220,Eu1Fe1.78Co0.22As2,21.0
16221,Yb0.9Ca0.1Ba1.8Sr0.2Cu4O8,87.0
16222,Pt0.035W0.965,1.98
16223,Ca1Fe0.78Co0.22As1H1,13.3
16224,Re2Zr1,6.3666666670000005
16225,Eu2.17Ce0.5Sr1.33Cu2.5Al0.5O9.02,16.4
16226,Ir0.91Se2,6.45
16227,Fe0.03Te0.9Se0.1,11.9
16228,Y0.25Eu0.75Ba2Cu4O8,75.0
16230,Mg1C1Ni2.8Fe0.2,8.0
16233,Ni25Th75,3.7
16235,N1H3Na1K2C60,8.0
16236,Na1Fe0.972Co0.028As1,20.1
16238,K0.8Fe1.7S1Se1,24.5
16239,La3.1Gd0.2Ca0.4Ba3.3Cu7O16.473,48.0
16241,Hg0.7Bi0.3Sr2Ca2Cu3O8.65,104.0
16242,Na0.3Co1H2.8O3.4,4.5
16244,Hg1Ba2Ca1Cu2O6.27,110.0
16246,Y2I1.6Br0.4C2,11.2
16247,Th0.93Zr0.07B12,5.5
16248,Mg1Co1Ni2.97Co0.03,6.7
16249,Lu1Os2,3.49
16250,I4Sn1,1.96
16251,Zr2Ru3Si4,5.7
16252,Ba1Fe1.974Mo0.026As2,12.5
16254,Ag0.9Sn1.1Se1.8S0.2,6.79
16255,Mg0.98Pb0.02B2,35.5
16256,V3Ge0.7Al0.3,11.17
16257,Ce1Ir3,3.34
16258,Ba1K1Bi1O4,23.0
16259,Pr2Ba4Cu7O14.06,30.5
16261,Ba0.445K0.555Bi1O3,15.5
16263,Y0.85Pr0.15Ba2Cu3O6.97,81.8
16265,Ge1.81La1,2.17
16266,Ba0.8K0.2Ti2Sb2O1,3.0
16267,La0.9709Ce0.0291Sn3,3.47
16268,Y1Ba2Cu2.9925Zn0.0075O6.92,88.0
16269,C0.47Sr2Ca0.35Y0.65Cu2.48O6.96,40.0
16271,Zr66.3Ti11.7Ni22,3.56
16273,Er0.82Tb0.18Ni2B2C1,5.63
16274,Nd1Fe1As0.5P0.5F0.1O0.9,25.2
16276,Y1Sr2Cu2.7Re0.3O7.2,44.0
16277,Ta0.07Zr0.93,3.25
16279,Hg1Ba2Cu1O4.3,81.0
16280,Pd1Te1.06,2.11
16283,Gd0.96Ca0.04Ba1Sr1Cu3O6.9138,71.0
16286,Fe1Te0.8Se0.1S0.1,6.6
16287,Y0.9Ca0.1Ba2Cu2.9Zn0.1O6.81,50.0
16288,La1Fe0.9875Co0.0125As1F0.11O0.89,24.5
16289,Au1Ga2,1.062
16290,Bi2Sr1.8La0.2Ca1Cu2OY,90.58
16291,Mo7Re13C1,8.1
16292,Dy1Ba2Cu2.98Fe0.02O6.88,88.0
16293,Bi2Sr2Cu1O6.175,7.0
16294,Pb0.79Tl0.21,6.43
16295,Nb0.5W0.5C1,12.5
16298,Al1Sr2Ca2Cu3O9.9,77.0
16299,Ir0.5Os0.5,1.69
16300,Er0.45Ca0.4Hf0.15Ba2Cu3O7.1,66.0
16301,Lu1Ni1.991Co0.018B2C1,15.6
16302,Hf0.2Nb0.8,9.48
16303,Cu1Co2S4,2.6
16304,Tl1Ba2Sr2Cu2C1O10,61.0
16305,La1.84Ce0.16Cu1O4,1.5
16306,C1.5Ti0.3Y0.7,12.9
16307,Sn0.6Eu0.5Mo6.35S8,10.2
16308,Pd1Zr2,2.36
16309,Nd0.4Ca0.6Ba0.6La0.4Cu3O6.71,78.5
16310,Ba1Fe2As0.88P1.12,13.9
16311,Ho0.85Y0.15Ni2B2C1,9.3
16312,Bi2Sr2Ca0.57Pr0.43Cu2O8,48.0
16313,Pb2Sr2Ho0.05Ca0.5Cu2.994Al0.006O8,76.4
16314,Y1Ba2Cu3O6.858,87.4
16315,Y1Os1B4,1.4
16316,Tb1.2Mo6S8,1.6133333330000001
16317,Sr0.85Y0.15Cu1O2,36.6
16320,Y1Ba2Cu3O6.702,69.0
16323,Sm1Ba2Cu2.96Zn0.04O6.83,70.0
16324,Bi1.6Pb0.4Sr2Cu2.85Mo0.15OY,98.5
16325,Y1Ba2Cu2.79Ga0.21O7,76.91
16327,Nd1.75La0.1Ce0.15Cu1O4,20.0
16328,Nb3Al0.67In0.33,16.0
16331,Zr74.1Ti3.9Ni22,3.65
16332,Mg0.7Zn0.3C1Ni3,2.5
16333,Ca1Al0.6Ga0.4Si1,4.51
16334,Ti0.81Zr0.82,1.03
16335,La1.01Pr0.85Sr0.14Cu1O4,25.0
16336,Ba0.1Fe0.9Se0.85,10.6
16337,Au1Ga1,1.2
16338,La1In1.5Sn1.5,1.19
16339,N0.75V1,2.3
16340,Nb0.76Al0.18Ge0.06,17.88
16342,Nb2.7V0.3Sn1,15.9
16343,Y1Ba1.9Cu2.9Co0.1O7.02,89.0
16347,Bi4Sr3Ca2.1Y0.9Cu4OY,66.2
16348,Y5Os4Si15,10.8
16349,Ca14Cu24O40.93,8.0
16350,Ca4Al2Fe2As2O5.785,27.0
16351,Os2Sc1,4.6
16352,Mg1C1Ni2.934Ru0.066,5.6
16353,Y1Ba2Cu3O6.883,74.0
16354,La1.82Ba0.18Cu0.99Ga0.01O4,8.6
16356,Bi2Ca2.5Pr0.5Cu2O8.53,45.0
16357,Ir0.42Nb0.58,4.2
16358,Y1Ba2Cu3H0.6O6.91,86.5
16359,La1.85Sr0.15Cu98Ni0.02O4,21.96
16360,Y0.8Pr0.2Ba2Cu3O6.91,62.7
16361,H0.6Nb0.8Pd0.2,3.46
16362,Cu1Rh1.9Sn0.1Se4,2.86
16363,La1.77Sr0.23Ca1Cu2O6.03,51.5
16364,La1.895Ba0.105Cu1O4,33.1
16365,La1.8Ca0.2Cu1O3.917,19.5
16369,Sn0.7Mo3Se4,4.85
16370,Bi0.4Sn0.6,7.34
16372,Bi4Sr3Ca2.25Y0.75Cu4OY,89.8
16373,Pr1Fe0.8Co0.2As1O1,2.0
16374,Nb0.85V0.15N0.92,3.88
16375,Tl1Sr1.5Nd0.5Ca1Cu2O7,88.0
16376,Gd0.07Pr1.78Ce0.15Cu1O4,17.4
16378,Ce0.8La0.2Ru2,4.77
16379,Rh0.36Se0.64,6.0
16380,Y0.6Th1.4C2.5,14.6
16382,Te3Tl5,2.144
16384,Bi2Sr1.9Y0.1Ca1Cu2O8.24,94.0
16385,Mo0.2W0.8C1,10.1
16386,Na1Fe0.93Co0.07As1,14.0
16387,La0.91Lu0.09,3.28
16389,Li1Hf0.22Zr0.78N1Br1,16.0
16390,Bi1.09Ta2Se5.09,1.8
16392,Au0.293Ga0.707,1.63
16395,Eu0.9Pr0.1Ba2Cu3O6.95,79.45
16396,Mo0.815Pt0.185,4.62
16397,Bi1.6Pb0.4Sr2Cu2.95Mo0.05OY,107.1
16398,Ho1Ba2Cu3O6.9,91.5
16400,Dy1Ba2Cu2.8Zn0.2O6.95,13.0
16401,Bi2Ca2.5Sm0.5Cu2O8.33,22.0
16404,Nb0.9V0.1,6.95
16406,Mo0.9Re0.1,2.945
16408,La1.78Sr0.22Cu0.9975Zn0.0025O4,19.25
16410,Nb0.96Ta0.04,8.87
16411,Pb2Sr2Ho0.5Ca0.5Cu2.982Al0.018O8,63.6
16412,Yb0.5Pr0.5Ba2Cu3O6.9,34.8
16413,La5Si3,1.6