,composition,Tc
5148,Ce0.4Nd0.6Bi1S2F0.5O0.5,3.93
5149,Pb1.2Mo6Se8,4.32
5150,La1.89Sr0.11Cu1O3.986,29.2
5151,Ga4Mo1,8.593333333
5152,Mg1B1.874C0.126,33.3
5153,Mg1C1Ni3,6.91125
5156,Si0.2V0.8,7.51
5157,La1Pt1Ge1,3.4
5160,Nd1Ba1Sr1Cu3O6.92,64.0
5162,Bi2Sr2Ca0.8Y0.2Cu2O8.2,87.8
5163,La1.77Sr0.23Cu0.94Fe0.06O4,30.5
5164,Rh1Zr3,7.65
5165,Lu0.9Er0.1Ru1B2,8.77
5166,La1.85Sr0.15Cu0.976Co0.024O4,4.4
5167,K1Os2O6,9.60375
5168,La1Ni1Bi1O1,5.5
5169,La1Ru2.85Co0.15Si2,6.45
5170,La0.5Nd0.5Pt2.1B2.4C1.2,6.36
5171,Sm1.85Th0.15Cu1O3.98,1.8
5172,Ca8.45Sm1.55Pt3Fe10As18,28.0
5173,Ru0.47V0.53,4.53
5174,Ag1Tl1,2.67
5175,V2.883W0.117Ga1,11.5
5176,Hg0.44Re1O3,7.7
5177,Ti0.576V0.384Ru0.04,5.57
5178,V2.865Fe0.135Ga1,10.1
5179,La1.7Sr0.3Cu1O3.997,10.2
5182,H0.965Pd1,6.45
5184,Pb1Tl0.12,6.88
5187,Sn0.756Ge0.084In0.16Te1,2.32
5189,La1.65Nd0.2Ca1.15Cu2O5.99,5.0
5195,Fe1.03Te0.8Se0.2,13.5
5198,Ca0.4Na0.6Fe2As2,25.0
5200,Mg1C1Ni2.99Ru0.01,6.715
5202,Nd1Ba2Cu2.95Ga0.05O6.59,53.0
5203,Y0.6La0.4B6,4.4
5204,Nd1.5Ce0.5Sr2Ta1Cu2O10,25.0
5205,Y1Ba2Cu2.4Ga0.6O7,63.31
5207,La1Fe0.5Ru0.5As1F0.11O0.89,13.6
5210,La1.78Sr0.22Cu0.97Zn0.03O4,3.3
5211,Sm1.86Ce0.14Cu1O4,22.7
5212,Y1Ba1.99Cu2.847Ag0.153O6.7,86.0
5213,Fe0.5Ba1Sr1Y1Cu2.5O7.35,60.0
5216,Nb1Se0.25Te0.75,4.4
5218,Sr0.4Ca13.6Cu24O41.84,10.0
5219,La0.5Th0.5Ni2B2C1,3.9
5220,Bi1.95Sr1.65La0.4Cu1O6.298,34.0
5222,Nb0.5Sn0.5,17.705
5223,Fe0.33Ni0.67Zr2,2.13
5225,Y1Re0.1Ba2Cu2.9O7.09,91.0
5229,Mo6Te5I3,2.4
5232,Mo0.75Re0.25,10.0
5233,Sc4Ir6Sn19,1.25
5235,Ce1Co0.9Ru0.1In5,2.25
5236,La2Cu1O4.12,43.0
5237,Mo0.006U0.944,1.2
5238,Cd0.04Cu0.96S2,1.3
5239,La2Ir3Si5,1.99
5240,Y1Ba1.95La0.05Cu3O6.89,86.0
5241,Ta0.75V0.25,2.65
5242,O1Sn1,3.81
5244,Pr1.85Ce0.15Cu1O4.161,18.85
5245,Tl2Ba2Ca1Cu2O7.833,112.0
5246,Pr1Fe0.95Co0.05As1O1,6.14
5247,Bi1Nb3,2.516666667
5249,Ba1.9K0.1Pb0.85Bi0.15O4,12.5
5250,Ge0.15Nb3Pb0.15Sn0.7,17.82
5251,Bi1.95Sr1.75Pr0.3Cu1O4,32.0
5252,Lu5Ir3.4Rh0.6Si10,5.7
5253,Hg1Ba2Ca2Cu3O8.28,118.5
5254,Hf0.2Zr0.8V2,8.85
5256,Bi1.8Pb0.2Sr1.8Ca1Nd0.2Cu2O8.2,86.0
5257,Ba1Rh2,6.0
5258,Nb1Se3Sn1,3.09
5259,Pr1.85Ce0.15Cu0.985Zn0.015O4.065,18.28
5260,Ho0.0105La0.9895,5.2
5261,Ca2Sr2Cu3Ga1O9,73.0
5263,Tl0.4K0.3Fe1.7Se2,27.125
5264,Ru0.58W0.42,5.2
5265,Np1Pd5Al2,4.95
5266,Er0.82Ca0.18Ba2Cu2.82Co0.18O6.71,84.5
5267,Y1Ba2Cu2.94Zn0.06O6.97,67.6
5269,Nb0.9Ta0.1,8.4
5273,Nb3Al0.91Ge0.09,19.8
5274,Y0.6Tb0.4Ni2B2C1,2.346666667
5276,Ca0.4Ba1.25La1.35Cu3O7.16,63.5
5277,Tl1Sr2Ca0.5Y0.5Cu2O6.89,92.0
5278,Y1.8Ru0.2C2.7,11.2
5279,La1Fe1As0.75P0.25F0.05O0.95,22.38
5280,Hg1Ba2Cu0.97Zn0.03O4.063,75.0
5281,Y1Ba2Cu2.975Zn0.025O6.85,72.85
5283,Mo0.5Pd0.5,3.52
5284,Bi0.1485Mo0.1815Cu2.67Sr2Y1O7.21,20.6
5285,Sm1Ba2Cu3O6.773,87.8
5286,C0.5W0.5,10.0
5288,Pr0.85Sr0.15Fe1As1O1,15.5
5290,La1Ba2Cu3O6.85,93.0
5291,Dy1Ba2Cu2.6Ni0.4O6.83,31.0
5292,Sr1Pt1.8Pd1.2P1,4.82
5294,Hf1Tc2,5.6
5295,Na0.33Ta1S2,4.7
5298,La1.83Sr0.17Cu0.98Co0.02O4,17.0
5300,La0.84Tm0.16Sn3,3.33
5301,Re0.6W0.4,6.8666666670000005
5303,Al1Sr2Ca1.4Y0.6Cu3O9.1,14.0
5305,Yb3Co4.3Sn12.7,3.4
5306,Th1.6Ho0.4C3,5.5
5309,Hg1Ba2Cu1O4.103,92.5
5310,Nb0.9Mg0.1B2,4.5
5312,Ba0.663K0.337Fe2As2,38.0
5313,Bi2Sr2Ca0.7Y0.3Cu2O8.3,86.0
5315,Fe1Se0.41Te0.41,13.2
5316,Ba1Fe1.924Co0.076As2,9.505
5317,C1Mo0.83Ti0.17,10.2
5318,Y0.95Ca0.05Ba2Cu3O6.94,88.2
5319,Fe1.13Se0.1Te0.85,5.25
5320,W0.25Sn0.875Mo6S8,13.635
5322,Tl1Sr2Ca0.1Y0.9Cu2O6.97,87.0
5323,Ta0.8W0.2,1.04
5325,Ba0.35K0.65Bi1O3,1.88
5326,Sr0.5La0.5F1Bi1S2,2.8
5327,Nb3Sn0.1Sn0.9,16.2
5328,Ba0.7K0.75Bi1OY,29.0
5329,La1.6Gd0.4Ba2Ca0.8Cu4.8O11.401,76.0
5330,Pr0.8Sr0.2Fe0.85Co0.15As1O1,15.9
5331,Hg0.15Pb0.85,6.75
5332,Th0.9995U0.05,1.014
5333,Rb2Cr3As3,4.8
5337,Y0.9Pr0.1Ba2Cu3O6.91,81.0
5339,In0.075Sn0.925,3.766
5340,La98Lu1.7Tb0.3,3.9589999999999996
5341,Hg0.85Re0.15Ba2Ca2Cu3O8,132.9
5342,Sr1Ga0.75Si1.25,3.67
5343,Y0.9Ca0.1Ba1.6La6Cu3O7.18,43.0
5345,Mo6.35Pb0.9S8Sn0.12,11.0
5346,Tl2Ba2Ca1Cu1.98Fe0.02F0.2O7.9,109.0
5347,Yb1Ba1.7Sr0.3Cu3O6.9,81.0
5348,Ce1Bi3.7Pb0.3Te6,2.9
5352,Pb0.95Sb0.05,7.83
5353,Nd1Fe0.8Ru0.2As1F0.11O0.89,22.1
5354,V2.814Nb0.186Ga1,13.5
5355,Nb2Ta0.5V0.5Sn1,12.2
5356,Gd1Fe1As1H0.1O0.9,55.6
5357,As2Cd1Ge1,3.02
5358,Cu2.5Sr2Ca1Cr0.5O7.5,81.0
5359,Fe1Te0.67Se0.33,14.0
5360,Ta5Ge1B2,3.8
5361,Ba1Pd0.3Si1.7,2.9
5362,Er0.4Y0.6Pd2Sn1,3.66
5364,Ca7.65Nd2.35Pt3Fe10As18,18.9
5366,Hf5Re24,4.3
5367,Fe1.03Te0.5Se0.5,12.9
5368,Na0.65Fe1.93Se1.8S0.2,36.0
5372,Eu0.8Pr0.2Ba2Cu3O7,63.0
5373,Cu1Mo4S5,11.0
5375,La1.75Pr0.1Sr0.15Cu1O4,37.4
5376,Mg0.95Zn0.05B2,38.3
5377,La1Ba1.87Ca0.13Cu3O6.923,82.0
5378,Sm0.7Pr0.3Ba2Cu3O6.75,6.6
5379,La0.99Y0.01,5.5
5381,Zr0.87Ge0.13,2.94
5382,Ba0.6Na0.4Fe2As2,33.85
5383,Th1Ir0.8Os1.2,3.22
5385,Ba1.6Sr0.4Yb0.65Ca0.35Cu3O6.04,50.0
5386,Ni2Zr0.5Nb0.5Ga1,2.0
5387,Ca0.8La0.2Fe2As2,40.0
5388,Tl0.7La1Sr1Cu1O5,38.5
5389,La1.85Sr0.15Cu1O4.022,40.0
5391,La1Pt1.5Au0.6B2.4C1.2,11.0
5393,Pd0.18Ti0.82,4.73
5394,Pd1Sb2,1.25
5395,Mo0.913Ti0.087,2.95
5396,Y0.8Ca0.2Ba2Cu3O6,24.0
5397,Nb5Si2.8B0.2,5.9
5398,Ba8Si31Ge15,3.91
5399,C1Hf0.25Mo0.75,6.6
5401,Si1V2.7Ru0.3,2.9
5404,Mg0.994Fe0.006B2,35.6
5405,K0.85Bi1.15O3,7.4
5406,Y1Ba1.7La0.3Cu4O7.8,62.7
5407,Au0.2B5Mo1.8,4.5
5408,La1.3Ba1.5Ca0.2Cu3O6.94,52.0
5409,Ag7N1O11,1.0325
5412,La1.1Ba1.5Ca0.4Cu3O7.17,70.0
5413,Au0.1C1.3Y0.9,10.1
5415,La1.81Sr0.19Cu0.94Fe0.06O4,28.6
5416,Mo6Se6Te2,5.88
5417,Y1Ba2Cu2.94Ni0.06O6.47,23.0
5419,Nb0.06Tc0.94,12.8
5420,La1Ir1P1,5.3
5421,Pd50.745Mo0.255Sb49,1.67
5422,Os0.01Zr0.99,1.52
5423,Bi0.5Pb0.25Sn0.26,8.5
5424,Cu0.75Cr0.25Sr2Y1.3Ce0.7Cu2O8.87,8.0
5426,Sm1Fe0.92Ni0.08As1O1,6.0
5427,Yb0.8Pr0.2Ba2Cu3O6.97,82.0
5429,Ni0.3Th0.7,1.98
5430,Y1Ba2Cu4Li0.125O8,58.0
5431,Y1Ba2Cu2.9775Zn0.0225O6.93,83.0
5432,Ba0.4Na0.6Fe2As2,28.7
5433,Hf0.875Re0.125,1.7
5434,Sr0.8Ba1.2Cu1O3.35,50.0
5436,La1.85Sr0.15Cu0.979Co0.021O4,3.0
5437,Nb80Ga17Fe3,11.6
5439,Y1Rh1.1Sn3.1,1.3
5440,Pb0.2Yb0.8Mo6Se8,6.7
5441,Ca1.7K0.3Cu1Cl2O2,24.0
5442,Gd0.1La1.7Sr0.2Cu1O4,30.0
5443,Ge0.1Si0.9V3,14.4
5444,Bi2Sr1.5Ca1.5Cu2O8.22,73.0
5445,Y0.8Pr0.1Ca0.1Ba2Cu4O8,80.0
5447,Ge1Nb2,1.9
5448,Y0.8Ca0.2Ba2Cu3O6.53,80.9
5450,Sm1Ba2Cu3O6.813,83.6
5451,Sm1Fe1As1H0.4O0.6,46.4
5453,Li2B1Pt3,1.86
5454,La0.95Y0.05F0.5Bi1S2O0.5,2.5
5455,V2.928Re0.072Ga1,10.8
5458,V0.81Cr0.09Al0.1,1.46
5459,Nb3Rh0.95Ir0.05,2.38
5460,K1Hg1C8,1.864
5461,Ta0.685Ti0.315,8.28
5463,Lu1Ni1B1.1C0.9,2.4
5464,Ba1Fe1.93Ni0.07As2,17.0
5465,Y1Ba2Cu2.8Fe0.2O6.8,43.9
5466,Zr2Co0.7Cu0.3,4.39
5467,Ba1Fe1.885Co0.115As2,24.3
5468,Li2B1Pd1.5Pt1.5,3.72
5469,Nb2.859Zr0.141Al1,13.6
5472,La1.815Sr0.185Cu1O3.964,33.2
5475,Bi4S2.91Se0.09O4,3.7
5476,Mo0.6Re0.395,10.6
5477,Ba1Ga1Si1,4.05
5478,La2.5Gd0.5Ca1Ba3Cu7O16.539,80.0
5479,Zr0.984Lu0.016B12,5.65
5480,Ce0.3Nd0.7F0.5Bi1S2O0.5,4.07
5481,Cd1.3Mo6Se7.5,2.5
5482,Fe1.12Se0.3Te0.7,13.7
5484,La1.9Sm0.1Cu1O4,25.0
5485,Y0.4Cu0.6Ba1.4La0.6Cu3O6.95,81.0
5486,Sn0.02V0.98,2.87
5487,Gd0.12Pr1.73Ce0.15Cu1O4,15.8
5490,Lu0.9Pr0.1Ba1.7Sr0.3Cu3O6.95,79.0
5491,C1Mo2,6.021666667000001
5492,Ba1Fe0.875Ru1.125As2,21.3
5494,Li0.4Mo1S2,3.7
5496,Bi2Sr2Ca0.6Y0.4Cu2O8.36,76.0
5497,Ce1Ir0.3Co0.7In5,2.0
5498,Ag7H1F2O8,1.44
5500,Y1Ba2Cu3O6050,22.0
5501,Ba1Fe1.8Co0.2As2,20.05
5502,Hf0.14Re0.86,5.83
5503,Y1.04Ba1.96Cu3O6.8,90.6
5504,Ga0.236V0.764,14.6
5505,La1.925Ba0.075Cu1O4,24.0
5508,Si3W5,2.7
5509,Ir0.99Pt0.01Te2,2.05
5510,Y1Sr2Cu2.675Ti0.325O7.1,56.0
5513,Ce0.2Nd0.8Bi1S2F0.3O0.7,2.33
5514,Ca1Fe1.94Co0.06As2,15.5
5515,C1Mo0.5Ta0.5,7.7
5518,Y1Sr2Cu2.8Re0.2O6.9,43.0
5519,Ba1Sn3,4.3
5520,Pd0.84Au0.16H0.9,13.6
5521,Al0.77Ge0.23Nb3,20.75
5522,La0.65Ca0.15Pr0.2Ba1.5Sr0.5Cu3O6.84,45.0
5524,Sr2Cu1C0.95B0.05O5,12.5
5525,La1Fe0.95Co0.05As1O1,12.01
5526,Nb3Al0.927Ga0.073,19.2
5529,Sm1Ba2Cu3O6.62,34.2
5530,Ba1Fe1.857Co0.13Mn0.013As2,18.0
5531,Pb2Sr2Eu0.65Ca0.35Cu3O8.1,71.0
5532,Bi2Sr1.4La0.6Cu1O6.42,5.0
5533,Pd2Tm1Sn1,2.82
5535,Pb0.352Sn0.528In0.12Te1,3.6
5536,Pb0.987Tl0.0125Na0.005Te1,1.87
5538,Lu0.9Tm0.1Ru1B2,8.72
5539,Y1Ba1.975La0.025Cu3O6.95,99.0
5540,Nb2Pd1S3.75Se1.25,2.23
5545,Mo1Ni1P1,15.5
5547,Y1Ba2Cu2.4Ni0.6O6.94,66.0
5548,La1Rh1P1,2.5
5550,La1Fe1As0.4P0.6F0.1O0.9,21.27
5551,Tl0.5Pb0.5Sr4Cu2C0.7N0.3O7,70.0
5554,Mo0.6W0.4C1,11.3
5555,In0.87Te1,1.55
5556,Lu0.6Er0.4Ru1B2,6.295
5557,Nb50Ti10Zr40,9.8
5558,K0.68Fe1.79Se2,32.0
5560,Be22Mo1,2.5275
5563,Al2C1Mo3,9.22
5564,Nb0.62Pt0.38,2.31
5565,Pd2Y1Sn1,4.55
5566,Mg0.815Al0.18B2,25.7
5570,Rh0.91Ti0.4V0.05,2.9
5572,Nd1Bi1S2F0.4O0.6,5.25
5574,Tl1Sr2Ca0.75Th0.25Cu2O7,52.5
5576,Y0.8Pr0.2Ba2Cu3O6.965,70.0
5577,Nb82Si18,4.4
5579,Ba1Fe1.935Ni0.065As2,11.3
5582,Ca2Cu1Cl2.18O2,24.0
5583,Ga1Sr2Ca3Cu4O11.1,107.0
5584,Cu0.05Zr1Te3,3.8
5585,Ba1Pt3Au1Ge12,7.0
5587,Ho0.9Lu0.1Ni2B2C1,8.77
5589,Hg1.4Tl0.6Ba2Y0.2Ca0.8Cu2O7.66,35.3
5590,Sr2Cu1C0.94B0.06O5,21.0
5591,Pb0.6Cu0.4Sr1La1Cu1O5.21,25.1
5592,Sn0.8549Pb0.0951In0.05Te1,2.06
5593,Rb0.19W1O3.001,5.02
5594,Au1Pd1In1Y1,2.3
5596,C0.78N0.22Th1,5.6
5597,Nd0.85Pr0.15Ba2Cu3O7,40.7
5599,Ba1Ni2Ge0.6P1.4,2.45
5600,Sc0.07V0.93,6.09
5602,Nd1.85Ce0.15Cu1O3.93,24.0
5603,Ba1Ag0.3Si1.7,3.2
5604,La0.5Pr0.5Ba2Cu3O7,51.7
5606,Pd0.95Ni0.05H0.86,1.49
5607,Ba0.825K0.175Fe2As2,10.0
5608,Nb78Ga18Mn4,5.97
5611,Y0.6Pr0.4Ba1.8Sr0.2Cu3O6.85,47.0
5612,Ba1Fe1.87Zn0.04Co0.09As2,13.42
5613,Gd1Ba1.75Pr0.25Cu3O7.06,39.2
5615,Yb3Rh4Sn13,7.833333333
5616,La3Ca0.4Cd0.6Ba3Cu7O16.336,48.5
5617,Tl1Sr1.5Er0.5Ca1Cu2O7,78.0
5618,Pr0.8Nd0.2Os4Sb12,1.52
5619,Eu0.9Sr0.1Ba1.6Pr0.1Cu3O6.58,32.0
5620,Hg1Ba2Ca3Cu4O1,115.0
5625,La2.9706Gd0.0294In1,6.0
5626,La0.8Y0.2Fe1As1O0.7,34.0
5629,Ir1Nb1,7.9
5630,Li2Pt3B0.95Al0.05,2.12
5631,Y0.95Pr0.05Ba2Cu3O6.96,89.5
5632,Cu0.5C0.5Sr2Ca1Cu2O7,90.0
5634,Nd1Fe1As1F0.2O0.8,32.6
5635,V3Ga0.7Sn0.3,7.2
5636,La0.1Nd0.9Pt2.1B2.4C1.2,3.45
5637,Ba0.9K0.1Bi0.4Pb0.6O3,11.3
5638,Ni31Zr69,2.44
5639,Y1Ba1.6La0.4Cu3O7.06,52.0
5640,Th1Ir0.4Ru1.6,2.87
5641,La0.95Ca0.05Ba1.5Sr0.5Cu3O6.878,66.0
5644,Nd1.85Ce0.15Cu0.99Fe0.01O4,13.0
5645,Hg1Ba2Ca1Cu2O6.16,121.0
5646,Co0.6Rh0.4Zr2,8.0
5647,Au0.388Ga0.612,1.355
5648,Ba8Si40Ge6,6.0
5649,C3Na1,2.3
5651,Ca8.48Pr1.52Pt3Fe10As18,31.8
5652,Fe1Se0.328Te0.492,13.8
5653,In0.955Pb0.045,3.69
5655,Ce0.8Tb0.2Ru2,2.56
5656,Bi8Sr6Ca6Cu9O34,74.3
5657,Mo0.95Hf0.05C0.73,12.0
5658,Ir0.2Ru0.05Zr0.75,6.8
5660,Tl2Ba2Ca0.8Ce0.2Cu2O8,103.0
5661,Y2Pd0.8Pt0.2Ge3,2.62
5664,Pr0.9Nd0.1Os4Sb12,1.73
5665,Nb3Al0.983Ga0.017,18.8
5668,Y0.5Lu0.5Ni2B2C1,14.7
5669,Li2.6Ti1.9O4,11.2
5670,Gd0.8Pr0.2Ba2Cu3O7,57.7
5671,La1Pt0.4Ni0.6Si1,1.945
5672,Re0.75Ta0.25,5.74
5674,La2.4Ba3.6Cu6O14.01,39.0
5675,Gd1Fe0.8Ir0.2As1O1,17.6
5676,Hg0.9In0.1,3.73
5677,Mo30Re70,7.62
5678,Gd1Ni0.72Bi1.91,4.2
5679,Nb3Al0.76Ge0.24,20.4
5680,N0.8V1,4.54
5682,Y0.6Pr0.4Ba2Cu3O6.65,38.0
5683,Y1Ba2Cu3.964Ni0.036O8,63.0
5685,La1.828Sr0.172Cu1O4,39.35
5686,Nb0.88V0.12,5.7
5690,Hf0.6Zr0.4V2,9.97
5691,Nb0.68Zr0.32,10.05
5694,Cr0.72Ru0.28,3.468
5695,Bi2Sr2Ca1Cu2O8.248,86.0
5696,Y1Ba2Cu2.95Fe0.05O6.9,88.7
5697,Rb2.7Tl2.2C60,23.2
5698,Fe1.03Se0.5Te0.5,14.3
5699,Ti1Ru1P1,1.315
5704,Ti0.54V0.36Al0.1,3.44
5705,K0.8Fe1.988Co0.012Se2,11.0
5707,Be8Nb5Zr2,5.2
5708,La1Ni1C2,2.89
5710,La0.75Ca0.05Pr0.2Ba1.5Sr0.5Cu3O6.886,33.0
5711,La1Fe1As0.7P0.3F0.05O0.95,15.75
5713,Gd0.7Pr0.3Ba2Cu3O6.95,30.6
5714,Mo6S7Sn1,13.0
5716,Li0.13Zr1N1Cl1,12.2
5717,Tl1Ba2Ca0.8Nd0.2Cu2O7,96.3
5719,La3Ni2B2N3,13.0325
5720,Pd0.5Sb0.5,1.48
5721,Bi1Pb1Sr2Y0.3Ca0.7Cu2O8,75.0
5722,Mg0.75Al0.25B2,30.2
5723,Nb0.44Ti0.56,8.99
5724,La1.865Sr0.135Cu1O4,33.0
5725,V0.75Ge0.15Al0.1,11.7
5728,In0.012Sn0.988,3.69
5729,Tm1Ni1.96Fe0.04B2C1,7.97
5731,Mo0.61Ru0.39,7.18
5732,Bi8Sr6Ca6Cu9O33.912,85.0
5733,Y0.8Ca0.2Ba2Cu2.8Co0.2O6.78,55.5
5734,Mg0.95Mn0.05B2,30.0
5736,La1Fe0.85Zn0.15As1F0.1O0.9,19.9
5737,Y1Ni1.9Fe0.1B2C1,8.2
5738,La1Fe0.98Co0.02As1F0.11O0.89,10.3
5741,Ce1Co0.8Ru0.2In5,2.18
5742,Ga0.5Ge0.5Nb3,7.3
5743,K0.5Ti1N1Cl1,16.15
5744,La1Fe0.95Rh0.05As1O1,12.0
5747,Bi2Sr2Ca0.5Y0.5Cu2I1O8,31.0
5749,Nb3Al0.92Ge0.08,19.9
5750,In0.5Nb3Zr0.5,6.4
5751,La1Tl3,1.5666666669999998
5753,Pd2Y0.6Er0.4Sn1,2.77
5755,Ba1Fe1.81Zn0.06Co0.13As2,19.0
5756,Ho0.85Lu0.15Ni2B2C1,8.72
5758,La1.5Ba1.3Ca0.2Cu3O6.957,35.0
5759,La1Fe1As0.6P0.4F0.05O0.95,19.04
5760,Nb55Mo25Si20,5.3
5761,H0.827Pd1,1.449
5763,Y1Ba1.4Sr0.6Cu4O7.8,78.5
5764,Sr2Ca1Cu2F1O5,69.1
5765,Ir0.455Nb0.455O0.09,9.2
5766,Pr2Ba4Cu7O14.21,23.0
5767,Nd1Fe1As0.4P0.6F0.1O0.9,22.6
5768,Y0.8Sc0.2Ru1B2,8.1
5769,O0.105Pd0.285Zr0.61,2.09
5770,Th1.6Er0.4C3,8.2
5771,Zr55Co30Al15,2.4
5772,Cs0.25W1O3,4.0
5773,Ta0.1V0.9,4.47
5774,Y0.7Ca0.3Ba2Cu2.7Co0.3O6.78,59.0
5776,Sc4.5Dy0.5Ir4Si10,6.95
5778,Sm1.55Gd0.3Ce0.15Cu1O3.97,20.2
5779,Rh0.005Ti0.995,1.295
5781,V0.73Si0.25Al0.02,14.0
5783,Ba0.7Rb0.3Fe2As2,36.9
5784,La1Fe1As0.8P0.2F0.1O0.9,26.0
5785,La1.96Na0.4Cu1O4,31.0
5786,Y1Ba2Cu2.775Co0.225O6.99,58.0
5787,Sn0.7598Pb0.1902In0.05Te1,2.77
5788,Y1Ba2Cu2.8Fe0.2O6.76,27.8
5789,Mg0.8Zn0.2C1Ni3,2.82
5790,H0.61Nb0.76Pd0.24,3.38
5791,Li2.6Ti1.7O4,11.4
5792,La1.86Ca0.14Cu1O4,32.0
5798,Pb0.5Sr2Ca1Cu2.5O6.8,115.0
5799,Ce0.65Pr0.35Ru2,1.25
5800,Lu1.86Y0.14Fe3Si5,3.51
5801,Au1.8Pd0.2In1Y1,2.27
5802,Gd0.85Pr0.15Ba2Cu3O7,67.9
5804,La1.75Nd0.1Ca0.064Ba0.086Cu1O4.03,20.6
5806,Bi2Sr2Ca0.9Er0.1Cu2O8,87.0
5807,Nb0.984Ta0.016,8.76
5810,O0.14Rh0.287Ti0.573,3.37
5811,Sr0.2La1.8Cu0.95Ni0.05O4,21.0
5812,Ba0.644K0.356Bi1O3,29.0
5813,Ba0.2Na0.8Fe2As2,19.2
5814,Nb3Sn0.5Ge0.5,11.95
5815,Sr1Pd1.93Pt0.07Ge2,3.24
5817,La0.9989Ce0.0011Pt1Si1,1.5
5818,Os2.76Re97.24,1.844
5819,Bi1.7Pb0.3Sr2Ca0.55Y0.45Cu1.94Zn0.06O8,41.3
5820,Mg1B1.6Be0.4,20.9
5821,Rb0.653Fe1.532Se2,30.9
5822,Hg0.9Re0.1Ba2Cu1O4.425,96.8
5824,Ta0.25V0.75,2.8
5825,Na1.38Zr1N1Cl1,11.0
5827,Y1Ni1.86Co0.14B2C1,8.13
5829,Ir0.1Ti0.9,4.3
5830,Lu1.9Dy0.1Fe3Si5,3.77
5832,V0.75Ge0.13Al0.12,11.3
5833,Eu1.8Pr0.2Ba4Cu7O14.779,68.0
5834,Bi1.8Pb0.2Sr2Ca1Cu1.94Co0.06O8,48.6
5835,La1.25Ca0.2Ba1.55Cu3O7.082,50.2
5836,Pd2Y0.7Yb0.3Sn1,4.03
5837,Cu0.6Zn0.4Ir2S4,2.605
5840,Lu2Ir2.4Rh0.6Si5,2.5
5841,Au0.2Sn0.8,2.38
5842,Pr1.9Ce0.1Cu1O3.98,9.0
5843,Th1Rh0.85Si1.15,5.48
5845,Ca1Tl0.75Pb2.25,3.68
5846,Sr0.67Pt3B2,2.78
5847,U0.99Gd0.01Pd2Al3,1.16
5848,Y0.4Cu0.6Ba1.3La0.7Cu3O7,82.0
5850,Zr1B12,6.09
5853,La1Fe0.925Co0.075As1O1,12.66
5854,H0.05Nb0.95,7.83
5855,Y1Ba1.9Sc0.1Cu3O6.55,88.95
5857,Re0.83Ru0.17,2.23
5859,Ba1Fe1.7Ir0.3As2,27.0
5860,La1Fe1As1F0.08O0.9,25.9
5861,Ca8.85La1.15Pt3Fe10As18,35.1
5862,Y0.8Ce0.1Ca0.1Ba2Cu4O8,63.0
5863,Ca3Al2Fe2P2O5,16.6
5864,Y1Ba2Cu3.925Zn0.075O8,25.0
5865,La2.7Pr0.3Se4,3.36
5872,Li0.98Fe1.02As1,4.61
5873,Ba0.95K0.05Ti2Sb2O1,4.25
5874,Ti0.91V0.09,6.3
5875,Fe1.049Se0.2Te0.8,11.0
5877,Dy1Ba1.4Sr0.6Cu3O6.91,85.2
5878,Sr0.2La1.8Cu0.99Zn0.01O4,29.0
5879,Bi2Sr2Ca0.55Y0.45Cu2I1O8,55.0
5881,Ce1Co0.925Ni0.075In5,1.69
5882,Bi2Sr2Ca0.9Y0.1Cu2O8.23,87.5
5884,Dy0.4Tm0.6Ni2B2C1,9.0
5885,Ir0.25W0.75,3.82
5886,Y0.95Pr0.05Ba2Cu3O6.965,88.0
5888,Ce0.4Nd0.6F0.5Bi1S2O0.5,3.94
5889,Lu0.5Ho0.5Rh4B4,8.43
5890,Tm1Ba2Cu3O6.91,90.36
5891,Dy1Ba2Cu3O6.75,94.0
5892,Cu3Mo6S8,5.5
5893,Nd2Ba4Cu7O15.38,35.0
5894,Sm1La0.85Sr0.15Cu1O3.98,30.0
5896,Hg0.9Re0.1Ba2Cu1O4.33,87.2
5897,Os0.232Re0.768,1.67
5899,Mg1B1.84F0.16,16.0
5901,U1Ni2Al3,1.021
5906,Y0.85Ca0.15Ba2Cu2.75Co0.25O7.01,80.6
5907,La1.9Ca0.1Cu1O3.967,20.0
5908,Y0.8Ca0.2Ba2Cu2.75Co0.25O7.01,82.2
5909,Li0.6Zr1N1Cl1,11.7
5910,Pu1Rh1Ga5,7.283333333
5911,Pb0.5Yb0.5Mo6Se8,8.7
5912,C1.35Nb0.1Y0.9,10.8
5913,Mo5P0.9B2.1,8.9
5914,Pb0.8Yb0.2Mo6Se8,12.2
5915,Nb50.2Zr39.4Mo10.4,8.8
5917,Sn1Ta1V2,2.8
5918,Gd1Ba2Cu3H0.12O6.89,84.0
5921,Lu1.2Mo6S8,1.95
5922,Be0.8Os0.2,8.6
5924,Sm0.85Gd1Ce0.15Cu1O3.97,11.3
5925,Mo0.1633Ti0.8367,4.0
5926,Er1Ni1.96Fe0.04B2C0.99,7.35
5927,Y0.7Gd0.3Rh4B4,3.54
5929,Ho1Ir3.6Rh0.4B4,1.9
5930,La1.85Sr0.15Cu0.97Li0.03O4,33.5
5931,La1Ba1Ca1Cu3O7,66.0
5934,Co0.007V0.993,4.52
5935,Li3Mo15Se19,3.5
5936,Mo6Se7.7S0.3,5.83
5937,Sm1.80375Y0.04625Ce0.15Cu1O4,15.0
5938,Hg0.016In0.984,3.342
5939,La1.929Na0.071Cu1O4,28.0
5941,Hf0.78W0.22,2.77
5942,Lu1Re2,1.7
5944,Nd1.55La0.3Ce0.15Cu1O4,23.35
5945,Y0.85Cs0.15Ba2Cu3O6.5,90.4
5947,Sr1Fe1.732Co0.268As2,11.0
5948,Nd1Bi1S2F0.3O0.74,3.51
5949,Rb0.74Fe1.6Se2,32.4
5950,Y1Ba2Cu2.95Zn0.05O6.62,21.0
5952,Ta1Se1.4Te0.6,2.05
5953,Ca1.8Cu1Cl2O2,41.0
5956,Y1Ba1.7Rb0.3Cu3O6.52,91.05
5957,Rb0.5Ti1N1Cl1,16.3
5958,La1.25Ca0.15Ba1.6Cu3O7.052,45.6
5959,Au0.075Sb0.85Te0.075,4.5
5960,Y1Ba2Cu2.7Fe0.3O7.15,36.0
5961,Na0.16Ti1N1Cl1,14.0
5962,Y0.88Ca0.12Ba2Cu4O8,88.5
5963,Al0.9Ga0.1Nb3,17.7
5965,Nb3Al0.05Sn0.95,18.2
5968,Hg1Ba2Cu1O4.162,97.4
5969,Be2Rh1,1.37
5970,Ba0.4K0.6Bi1O3,7.2
5971,Mo0.62Re0.38,11.5
5973,Rh0.027Zr0.973,3.6
5975,Fe1Se0.25Te0.75,13.225
5976,Y0.6Pr0.4Ba2Cu3O6.8,33.9
5978,Tl2Ba2Ca1Cu1.98Fe0.02F0.3O7.85,101.0
5980,Co0.03V0.97,1.48
5981,Ca0.64Na0.36Fe2As2,17.0
5982,Nb0.75Al0.225Si0.025,16.4
5984,Ba1Fe1.79Zn0.08Co0.13As2,19.0
5985,La1.775Nd0.125Sr0.1Cu1O4,26.0
5988,Ni0.02V0.98,3.29
5989,Mg1B1.9906C0.0094,38.5
5990,Ga28.1V71.9,12.2
5992,Mg1B0.96C0.04,35.5
5994,Lu5Ir4Si9Ge1,6.38
5996,La1.89Ca0.11Cu1O4,23.0
5997,Mo0.3Nb0.1Re0.6,10.1
5998,Ca1Al1.4Si0.6,4.6
5999,Sn0.95In0.05Te1,1.273333333
6001,Zr0.8Mo0.2,4.64
6002,Ce0.91La0.09Ru2,5.91
6003,Nd1Fe0.99Mn0.01As1F0.11O0.89,38.0
6004,Y2Ba4Cu7O14.85,78.0
6005,La2Cu1O4.012,32.0
6006,Nd0.85La1Th0.15Cu1O4,16.0
6007,Nb25V10Ti65,8.0
6008,Rb2Fe4Se5,32.0
6009,Sn0.8Ag0.2Te1,1.8633333330000001
6010,Nb77.5Sn5.6Al11.3Ge5.6,15.2
6011,Ga1Nb2.4V0.6,12.5
6012,Rh0.91Ti0.4W0.05,3.4
6013,La1.81Sr0.19Cu0.98Mn0.02O4,37.0
6014,H00.33Nb0.67,7.28
6015,V2.994La0.006Si1,16.48
6016,Ca10Pt3.981Fe9.019As18,7.49
6017,Cr0.56Re0.44,5.1
6018,La2Cu1O4.11,43.5
6019,Nb2.7Zr0.3Sn1,18.1
6020,C1.35Sn0.1Y0.9,10.2
6022,Fe1Se0.8Br0.2,5.0
6023,Lu2Ir3Si4.25Ge0.75,4.6
6026,Th1Er1C3,4.6
6027,Y0.925Ba1.975Ca0.1Cu4O8,92.3
6028,Ba0.85Na0.15Ti2Sb2O1,5.11
6030,Mn0.21Si1V2.79,15.5
6031,Cu1.75Co1.25S4,2.2
6032,Ag0.15Bi0.85,5.3
6034,Co0.5Mn0.5U6,2.55
6035,Yb1.2Mo6S8,8.6
6037,Ru2Zr1,2.0533333330000003
6038,K0.75La0.25Bi1O3,12.2
6039,Rh0.8Y0.2,1.18
6040,H0.47Nb0.72Pd0.18W0.1,3.48
6041,Nb0.08Ta0.92,4.54
6042,Y2La0.2Ba3.8Cu6O13.92,93.0
6043,Al1Nb2Ni1,4.2
6044,Y1Ba2Cu2.94Fe0.06O6.929,85.0
6045,Lu2Ir2.91Rh0.09Si5,3.8
6046,La1.5Ba1Sr0.5Cu3O6.955,26.9
6047,Os0.15W0.85,2.2
6049,Fe0.5Sr1Ba1Y1Cu2.5O7,58.5
6051,Sm1.39Ba1.61Cu3O7.07,31.8
6052,Pd29Zr71,2.49
6053,Sr1Fe2As1.2P0.8,27.0
6054,Lu4.5Ho0.5Ir4Si10,1.89
6056,Os0.34W0.66,3.81
6058,Pb1S1Pb1Se1,4.59
6059,Mo6Se7.3S0.7,5.03
6060,Y0.85Pr0.15Ba2Cu4O8,72.3
6062,La0.7Y0.3Fe1As1F0.1O0.9,34.8
6064,Pb0.92Mo6S7.5,13.98
6065,Ce0.965La0.035Co1In5,1.84
6066,Nd1Fe0.85Rh0.15As1O1,14.7
6069,Pr1.8Ce0.2Cu1O4,3.0
6070,Pr1Th3.4Ru0.6B4,2.3
6072,Sm1Fe0.97Mn0.03As1F0.12O0.88,31.3
6073,Fe1.7Co0.3As2Sr4Mg1Ti1O6,16.0
6074,Fe1.02Te0.5Se0.2S0.3,10.16
6077,Ba8Si28Ge18,3.12
6079,Cu0.85Re0.15Sr2Y1Cu2O7.3,69.0
6081,Bi0.6Tl0.4,6.0
6083,Sr0.2Ta1S2,2.8
6084,Si23.8V74.65,16.5
6086,Ni45Zr55,2.0
6087,Lu0.5Pr0.5Ba1.7Sr0.3Cu3O6.92,20.0
6088,Re0.8V0.2,6.2
6090,Y2Br1.5Cl0.5C2,4.4
6091,Au1Tl1,1.92
6092,Y2Pd0.6Pt0.4Ge3,2.46
6093,La1.8Sr0.2Cu0.995Zn0.005O4,22.8
6094,N0.34Re1,4.5
6096,Ba1Fe1.878Co0.122As2,24.0
6097,Ti0.564V0.376Fe0.06,5.32
6098,Bi2Sr2.6Nd0.4Cu2OY,55.28
6099,Pb0.96Tl0.04,7.06
6100,Sn0.798Ge0.042In0.16Te1,2.36
6101,Ta1Ge2,2.3
6102,La1.922Ba0.078Cu1O4,24.95
6107,Ge0.5Pt0.5,1.4
6110,Sr1Fe1.8Ni0.2As2,7.4
6111,Nd1Fe0.95Co0.05As1F0.11O0.89,30.1
6113,La1Pd1Si3,2.625
6114,Lu1Rh1.2Sn4,4.0
6117,Dy0.6Pr0.4Ba2Cu3O6.9,41.2
6118,Fe1Se0.94,8.545
6120,Y1Sr2Cu2.7Ti0.3O7.144,12.0
6122,La0.75Y0.25,2.5
6123,V0.736Sb0.037Al0.227,6.4
6124,Y0.7Pr0.3Ba2Cu3O6.96,57.0
6126,K0.85La0.15Bi1O3,10.25
6127,Bi1Pt1,1.21
6128,Nb1Si1As1,8.2
6129,Nd1.2Ba1.4Ca0.4Cu3O6.888,40.0
6130,Li0.8Fe1.2Se0.84S0.16H1O1,38.6
6131,Bi1.6Pb0.4Sr2Ca0.6Nd0.4Cu2O8.26,85.0
6133,Gd0.75Ca0.1Mo0.15Ba2Cu3O6.671,75.1
6134,Sn0.96In0.04Te1,1.22
6136,Y0.9La0.1B6,6.8
6138,La1Ir2Si2,1.198333333
6139,Ga0.15Nb3Sn0.7Tl0.15,18.14
6140,Nb0.05Rh0.04Ti0.91,2.4
6141,Y0.9Ca0.1Ba2Cu4O8,87.35714286
6142,V50Ti40Zr10,5.5
6143,Ca1.84Na0.16Cu1Cl2O2,19.7
6144,Zr2Co1,5.47
6145,Y0.6Eu0.4Ba2Cu3O7,92.6
6146,Re3W1,8.733333333
6147,La0.2Sm0.8Bi1S2F0.5O0.5,5.43
6148,Ti0.96V0.04,2.7
6149,La1Ru1.5Sn4.5,3.9
6150,La1.885Sr0.115Cu0.965Li0.035O4,26.5
6153,B2Nb0.84,9.1
6155,Y0.9Ca0.1Ba1.9La0.1Cu3O6.95,86.0
6157,As0.1P0.9,9.9
6158,H0.37Mo0.1Nb0.72Pd0.18,4.44
6160,Tl2Mo6Se6,4.575
6161,Pb0.18Sn0.74In0.08Te1,2.85
6163,Pd0.985Ni0.015H0.84,2.52
6165,Hg1Ba2Cu1O4.22,97.0
6166,La1.855Sr0.145Cu0.99Zn0.01O4,24.7
6167,Rh0.015Ti0.985,1.6
6169,Bi1.6Pb0.4Sr2Ca2Cu3O10.34,67.1
6172,Ir2.5Sc1,2.46
6173,As2Te3,4.4
6174,Rh0.5Pd0.5Pb2,1.7
6176,La1Ba1Cu2.94Co0.06O7,57.0