,composition,Tc
6180,La1.75Sr0.25Cu1O3.93,15.0
6181,Ce0.16La0.84,8.7
6183,Cu1Se2,2.22375
6184,Y0.6Pr0.4Ba2Cu3O6.96,32.0
6186,Y1La0.2Ba1.8Cu3O7.79,90.4
6189,Os3Th7,1.51
6192,C0.51Sr2Ca0.5Y0.5Cu2.42O6.92,48.9
6194,Nd1.85Ce0.15Cu1O3.971,21.6
6195,Y1Ba2Cu2.64Co0.36O7.03,22.0
6197,Y1Ba2Cu3O6.57,56.1
6198,Ce1Co0.95Ni0.05In5,1.86
6200,Y1Ba1.8Sr0.2Cu4O8,77.7
6202,La1.82Ca0.18Cu1O4,33.0
6203,Sn0.174Ta0.826,6.5
6204,Pr1Fe1P1F0.1O0.9,2.34
6205,Pr0.82La1Ce0.18Cu1O4,16.2
6208,Tl2Ba2Ca0.9Ce0.1Cu1.98Fe0.02O8,99.0
6212,La2.2Ba3.8Cu6O13.86,52.0
6213,Sm1.857Ce0.143Cu1O4,22.3
6214,Nb79.7Sn6.1Al2Ge12.2,7.15
6215,Mg1B0.9C0.1,30.0
6218,Ti0.18V0.72Al0.1,2.05
6220,U0.88Mo0.12,1.91
6221,Mg1C1Ni2.9Ru0.1,4.72
6223,Sr3Ir4Sn13,5.016666667
6225,Tm1.4Pr0.6Ba4Cu7O14.667,60.0
6226,Fe0.5Ba2Er1Cu2.5O7.46,72.0
6227,Bi4Sr4Ca1.8Tm0.2Cu4O16.38,83.9
6228,Gd0.75Ca0.1Hf0.15Ba2Cu3O6.89,82.7
6231,C6Ca1,11.302999999999999
6232,La1.914Sr0.086Cu1O4,22.25
6234,Ba1.4Sr0.6Yb1Cu3O6.66,43.1
6235,La1Tl2.19Pb0.81,1.37
6237,Pb0.99Tl0.005Na0.005Te1,1.61
6238,Ba1Fe1.866Pd0.134As2,7.16
6239,Nb3Ga0.2Bi0.2Sn0.6,18.06
6241,Bi2Sr2Ca1Cu1.988Ni0.012O8,92.55
6242,Y0.65Ca0.15Pr0.2Ba2Cu3O6.95,77.1
6243,Cu0.1Sn0.9,6.8
6244,Yb0.8Ca0.2Ba0.8Sr0.4Cu3O6.85,35.0
6246,Be22Re0.95W0.05,9.45
6248,Fe0.5Ba1Sr1Yb1Cu2.5O7.432,29.7
6249,Y1Ba2Cu2.865Al0.135O7,45.0
6253,Au0.14Te0.86,1.7
6255,La1Fe1As1H0.7,32.5
6256,Sm1Fe1As1F0.14O0.86,26.9
6257,Sn1Fe0.05Mo6S8,7.05
6258,Sn3Yb1,3.6
6259,Nb1N0.87O0.13,17.2
6261,Y0.95Cs0.05Ba2Cu3O6.61,92.45
6262,Tl1Sr2Ca0.8Y0.2Cu2O6.82,85.0
6263,Bi4Sr3Ca2Tm1Cu4O16.73,46.5
6264,Y0.77Gd0.23Ni2B2C1,4.2
6266,Lu2Ir3Si4.95Ge0.05,6.75
6267,Sn0.92In0.08Te1,1.355
6268,La1.805Nd0.08Sr0.115Cu1O4,27.5
6269,Y1Ba2Cu3O6.546,59.4
6270,Au0.976Pd0.024Ga2,1.56
6271,Nb0.35Zr0.65,9.45
6273,Li1.035Ti1.965O4,11.75
6274,Bi0.06Pb0.95,7.35
6275,Y1Ba2Cu3.985Zn0.015O7.95,70.0
6276,Lu0.8Er0.2Ru1B2,7.85
6277,Nd1Fe1As0.8P0.2F0.1O0.9,34.1
6279,La0.8Pr0.2Pb3,1.34
6280,Li0.8Fe1.2Se1H1O1,40.45
6281,La1.8Sr0.2Cu0.9952Zn0.0048O4,28.6
6282,La1.5Ba1.3Ca0.2Cu3O6.918,25.0
6283,U1Ir2Ge2,1.1
6284,Ni0.03V0.97,2.11
6285,Y0.7Ca0.3Ba1.4La0.6Cu3O7.12,82.0
6286,Ta4Pd3Te16,4.38
6288,Nb50Ti5Zr45,10.2
6289,Ho1Ba2Cu3O6.96,91.8
6291,Ca1.65Na0.35Cu1Br1Cl1O2,24.0
6292,Li1Zr1N1Cl0.75Br0.25,14.4
6293,Ga0.15V2Al20,1.53
6294,Cu0.5P0.5Sr2Ca1.8Y0.2Cu3O9.45,75.0
6297,Y1Ba2Cu2.91Zn0.09O6.9,74.6
6299,Lu2Ir3Si4.5Ge0.5,5.2
6300,P1Rh1,1.22
6301,Nb0.75Al0.21Ge0.04,19.85
6302,La1.76Sr0.24Cu0.995Zn0.005O4,13.0
6303,Pr0.7La0.3Os4Sb12,1.528
6304,La1Fe0.97Ru0.03As1F0.11O0.89,25.6
6307,Pr0.88La1Ce0.12Cu1O3.947,22.0
6308,Sn0.85Ag0.15Te1,2.15
6309,Ba1Pb0.35Hg0.4Bi0.25O3,10.7
6310,Ir1Os1Y1,2.6
6311,Lu1Pd2Sn1,2.91
6314,Y1Ba2.01Cu3.11O7,86.0
6315,Nb76.3Sn10.5Ge2.3Al10.9,14.4
6316,La1Os2,7.575
6317,Y1Ba2Cu3Br0.9O6.2,92.0
6318,Ba0.8K0.2Bi0.3Pb0.7O3,7.2
6319,La1.5Ba1.1Ca0.4Cu3O6.764,25.0
6320,Nb0.76Pd0.24,1.9
6321,Y1Ba1Sr1Cu2.75Sn0.25O7.16,40.9
6323,Bi0.4Pd0.6,3.85
6325,Ir2Lu1,2.47
6326,Ag0.95Sn1.05Se2,5.245
6327,Y0.75Tb0.25Ni2B2C1,10.02
6328,Ca8.18La1.82Pt3Fe10As18,22.1
6329,Ge2Hf1,2.2
6331,Y1Ba1Sr1Cu3O6.685,34.0
6332,Yb0.8Lu0.2Ba2Cu3O6.94,89.9
6333,Mn0.14Ti0.86,2.55
6334,V0.745Sb0.208Al0.025,2.0
6335,Mg0.95Cu0.05B2,37.75
6336,Ag0.03Tl0.97,2.67
6337,Ba8Si43Ge3,7.1
6338,La1Fe0.98Zn0.02As1F0.1O0.9,25.5
6339,Lu0.55Er0.45Ru1B2,5.26
6340,Mo4P3,2.75
6342,Zr2Rh1H0.28,8.8
6343,Nb0.8Ga0.19Cr0.01,13.6
6344,Ce1Ru1.95Co0.05,2.4
6347,In0.45Tl0.55,2.48
6348,Nb3Al0.5Ga0.5,18.75
6349,La1.85Sr0.15Cu0.982Zn0.018O4,12.6
6351,Sr1Fe1.752Co0.248As2,13.2
6352,Ba0.37K0.63Bi1O2.952,8.71
6355,Ho0.95Lu0.05Ni2B2C1,8.77
6356,Ca0.75K0.25Cu1Cl2O2,24.0
6359,La1.885Ba0.115Cu1O4,13.9
6360,Gd1Ba1Sr1Cu3O6.9371,76.5
6361,Nb0.5Mo0.5C1,13.1
6362,Ca1.843Na0.157Cu1Cl2O2,25.0
6363,Th0.9La0.1Ru2,4.73
6364,Re0.9865Ru0.0135,1.9369999999999998
6365,Dy0.7Pr0.3Ba2Cu3O6.9,53.9
6366,Th1.4Er0.6C3,8.1
6367,La1.85Sr0.11Ho0.04Cu1O4,12.8
6368,Rh0.04Sc0.05Ti0.91,1.3
6370,Gd1Mo6S8,1.6
6371,Nb27.5Ta27.5Rh45,3.965
6372,Ba0.5K0.5Fe1.8Co0.2As2,19.95
6373,Mg0.99Co0.01B2,37.1
6374,In0.7Sn0.3,7.3
6377,Y1Ni1.54Pd0.46B2C1,10.3
6378,Mo3S2Se2,3.3
6379,C22H14K2.9,7.0
6380,Ba0.55K0.45Fe1.95Co0.05As2,32.5
6383,Cu1.6Mo6S8,11.3
6384,Ca0.902Pr0.098Fe2As2,40.0
6385,Mo0.95Hf0.05C0.75,14.2
6386,Hf0.5V2Zr0.5,10.1
6387,Pd2Tm1Pb1,2.1
6388,Pb0.975Tl0.0125Na0.0125Te1,1.71
6389,Ir0.49Mo0.51,1.81
6390,Nd1.85Ce0.15Cu0.98Mn0.02O4,21.1
6391,Fe0.98Zn0.02Se0.3Te0.7,12.0
6393,Fe2As2Ca4Al1.34Ti0.66O6,12.5
6395,Ca1Fe1.922Co0.078As2,21.2
6396,Sr3Rh8B6,3.4
6397,Mo0.77Si0.23,1.7
6399,Ba1Pb0.9Bi0.1O3,2.91
6400,Tl1Ba2Ca0.8Y0.2Cu2O7,97.6
6401,Bi1.7Pb0.3Sr2Ca1Cu2O8.05,80.5
6402,Bi0.54Cd0.2Sn0.26,3.69
6403,Y1Ba2Cu3O6.346,12.3
6404,Ba4Sr4Si46,5.3
6405,Cu0.1Ir1Te2,2.41
6408,Pb2Sr2Eu0.8Ca0.2Cu3O8.1,73.0
6411,Er0.6Pr0.4Ba2Cu3O7,45.8
6412,Li2Pd2.4Pt0.6B1,5.47
6413,Nb3Ga0.67Al0.33,18.1
6414,Pb3Sr1,1.85
6415,Ba0.5K0.5Fe1.96Mn0.04As2,25.85
6416,Fe0.02Te0.8Se0.2,13.6
6417,Nb80Ga16Mn4,6.03
6421,Pd17Se15,1.1
6422,Bi0.5Pb0.25Sn0.25,8.5
6423,Ag0.002Al0.998,1.128
6424,Ce0.837Yb0.163Co1In5,1.4
6425,V3Ga0.1Sn0.9,3.8
6428,La0.77Sm0.1Sr0.13Fe1As1O1,18.0
6429,La1Bi1S2F0.7O0.3,7.86
6430,Sn1Ta2V1,3.7
6433,Te2Mo6Se6,3.0
6436,Nd1Ba2Cu3O6.76,94.0
6437,La1.64Eu0.2Sr0.16Cu1O4,10.0
6438,Sr2Ca1Cu2F2O4.6,99.0
6443,Y1Ba2Cu3Li0.08O7,89.2
6444,Rb1Hg1C8,1.43
6445,Y1Ba2Cu2.94Zn0.06O6.75,37.0
6446,Tc0.75Ti0.25,5.1
6447,Ga6Tb1,2.5
6448,Y1Fe2Si2,2.9
6455,Ru0.95Rh0.05Sr2Gd1Cu2O8,34.575
6456,Er1Ba2Cu2.85Ga0.15O6.69,82.0
6457,Hf0.661W0.339,2.51
6458,Y1Ba2Cu2.68Fe0.32O7.343,82.0
6459,V3Ga0.999Zn0.001,10.2
6462,Ce0.2Nd0.8Bi1S2F0.7O0.3,4.31
6465,Fe1Se0.92,7.4
6468,Y1Ba2Cu2.73Ga0.27O7,67.04
6469,Co0.02Nb3Rh0.98,2.28
6470,Nd0.8Ba0.2Fe1As1F0.4O0.6,50.03
6471,Nd0.4Sm0.6Bi1S2F0.5O0.5,5.51
6472,Nd1.7575Y0.0925Ce0.15Cu1O4,18.0
6473,Ti0.33Zr0.66,1.35
6474,Y1Ba2Cu2.88Ni0.18O7,77.2
6475,La1.78Sr0.22Cu0.993Zn0.007O4,18.0
6476,Y1Ba1.95Cu2.95Co0.05O7,90.0
6477,Os0.05Zr0.95,5.38
6480,Bi2Sr2Ca1Cu2I0.98O8.21,49.3
6481,Nd1Ba2Cu3O6.23,60.5
6482,La0.8Ca0.2Ba1.5Sr0.5Cu3O6.794,73.0
6485,La1.75Er0.25Ba2Ca0.5Cu4.5O10.662,66.0
6486,Mn0.2Fe0.8Se0.85,11.1
6487,Hg1Ba2Cu1O4.05,73.5
6488,La1.07Pr0.85Sr0.08Cu1O4,9.0
6490,Lu2Ir3Si4Ge1,3.6
6491,La1.3Ba1.2Sr0.5Cu3O6.955,38.0
6493,Fe0.9Co0.1Se1,5.0
6494,Ir0.42Ta0.58,6.6
6495,Ce1Rh0.29Co0.71In5,1.56
6497,Dy1Rh2.4Ir1.6B4,3.83
6498,Lu1.96Sc0.04Ir3Si5,2.8
6501,Bi0.9Nd0.05Tb0.05Pb1Sr2Ca2Cu3O10,111.0
6502,Y0.8Pr0.2Ba1Sr1Cu3O6.9,79.4
6503,Ce1Fe1As1F0.05O0.95,11.8
6505,Mg0.92Al0.08B2,33.55
6507,Ca8.6La1.4Pt3Fe10As18,34.5
6508,Y1Ba1.78La0.22Cu4O8,37.9
6510,Mo0.16U0.84,2.121
6511,Y1Ba2Cu2.9Al0.1O7.1,85.0
6512,Ba1Fe2As1.18P0.82,25.3
6514,Y1Ba2Cu3O6.61,59.626000000000005
6515,Ti0.106V0.894,6.86
6516,Nd1.2Ba1.6Sr0.2Cu3O6.885,45.0
6518,Mg0.9Li0.1B1.82C0.18,28.5
6519,La0.81Gd0.06Sr0.13Fe1As1O1,17.1
6520,Ba0.553K0.447Bi1O3,25.5
6521,Sr1Au1Si3,1.65
6522,Mo1Si0.7,1.34
6523,Mo1S2Sr0.2,5.6
6524,Y0.95Ca0.05Ba2Cu2.95Al0.05O6.88,92.0
6525,Pb2Cu0.9La1.1Cu2O6.28,33.4
6526,Y1Ba1Sr1Cu3O6.947,83.3
6527,Zr55Cu25Nb5Al10Ni5,3.0
6528,Ba1Fe1.916Co0.084As2,15.5
6529,Ga2Y1,1.68
6530,Sn0.8In0.2Te0.95Se0.05,3.3
6532,Mo0.81Pt0.19,4.53
6533,La1.8Sr0.2Cu0.9777Zn0.0223O4,15.7
6534,B2Nb0.83,9.77
6535,Gd0.9Mo0.1Ba2Cu3O6.907,65.9
6539,Bi0.525Pb0.32Sn0.155,8.68
6540,Hg1Ba2Ca2Cu3O8.35,134.0
6542,Nd1Ba2Cu3O6.84,93.0
6544,La1.85Sr0.09Ca0.034Ba0.026Cu1O4,28.5
6545,La1.865Ba0.135Cu1O4,2.99
6551,Fe1Se0.8,8.65
6552,Ga2Pt1,1.9
6553,Ba8Si38Al8,3.0
6554,Ca0.84Ce0.16Fe1As1.98Sb0.02,21.0
6555,Nb0.25V0.75N0.94,2.92
6556,Bi8Sr8Ca4Cu9O34.16,94.2
6557,Ba1Fe1.83Zn0.08Co0.09As2,7.54
6559,Ca0.67Sr0.33Fe2As2,22.0
6567,Ca1Al1.1Si0.9,6.63
6568,Ca0.85Gd0.15Fe1As2,19.5
6571,Ba1Fe1.2Ru0.8As2,5.02
6572,Ca1.8Na0.2Cu1Br1Cl1O2,19.0
6574,Nd1Fe1As1F0.16O0.84,46.0
6575,Mg0.815Al0.024B2,35.0
6576,Sr2Y0.7Ca0.3Cu2.35Pb0.65O6.89,17.0
6577,Nb0.55V0.45,4.11
6578,La0.5Y0.5Fe1As1F0.15O0.85,40.2
6579,Sb0.03V0.97,2.63
6580,Cu0.3Zn0.7Ir2S4,1.36
6581,Nb1.71V1.29Au1,1.6
6582,Y1Ba1.6La0.4Cu3O7.11,49.3
6583,Sn1Ta1S3,2.9
6584,Y1Ba2Cu3O6.869,90.0
6585,Ba1Ti2Sb1.8Sn0.2O1,2.2
6586,Ba1Fe1.94Pd0.06As2,16.4
6587,Y1Ba2Cu2.85Ni0.15O6.84,75.0
6588,Nb2.55Ti0.45Sn1,15.6
6589,Rb0.8Fe2Se2,31.4
6590,Pr0.85La1Ce0.15Cu1O4,24.0
6591,Lu1Rh2Sn1,2.9
6593,Mo0.15Pa0.85,3.08
6595,Ga0.2Nb0.8,15.3
6596,La0.967Pr0.033Tl3,1.16
6597,Mo0.913Ti0.037,2.95
6598,Pr2Tl2Sr2Cu3O11,43.0
6599,Ir0.7Rh0.3Te2,2.09
6600,La1.05Ba1.5Ca0.45Cu3O6.81,74.0
6601,Y1Ba2Cu2.94Zn0.06O6.7,23.0
6602,Zr2Co0.3Ni0.7,1.87
6604,B2Nb0.4,6.57
6606,Sr1Pd1.94Co0.06Ge2,2.58
6607,Ni2.5Cu1.5Zr8,1.09
6608,Ba0.76Na0.24Fe2As2,15.9
6609,Ba1Fe1.125Ru0.875As2,22.5
6611,Bi2Sr2Ca0.8Eu0.2Cu2O8.26,90.65
6612,Nb0.7Ti0.3,10.1
6613,La2.85Pr0.15Se4,4.81
6614,Fe2P2Sr4Sc2O6,17.0
6615,Pb1Ta1Se2,3.695
6616,Ba1Cu0.3Si1.7,3.0
6617,Rb1Cs2C60,33.0
6618,Sn99.2In0.4Sb0.4,3.6689999999999996
6619,Na0.75Co0.995Ga0.005H2.6O3.3,2.99
6620,Lu5Ir4Si6Ge4,5.1
6621,Y1Ba2Cu2.98Fe0.02O6.93,90.4
6622,Pb0.5Ca1Sr2Y0.5Cu2O7,62.0
6623,V3Ga0.994Cd0.006,11.2
6625,Ba0.816K0.184Fe2As2,12.0
6626,Mo0.42Re0.58,7.375
6627,Lu0.93La0.07Ni2B2C1,13.6
6629,Y0.75Ca0.25Ba2Cu2.75Co0.25O6.8,61.0
6631,La1.79Sr0.21Cu0.99Ru0.01O4,22.1
6632,Ti0.588V0.392Ru0.02,6.58
6633,Tl2Ba2Ca2Cu3O9.83,114.0
6634,Ca1Al0.9Si1.1,5.57
6636,La1.725Nd0.125Sr0.15Cu1O4,33.5
6637,Y1Ba2Cu2.87Al0.13O7,45.0
6638,Fe1.8Co0.2As2Sr4Mg1Ti1O6,24.0
6639,Bi0.025In0.975,4.07
6641,Yb1Ba2Cu3O6.95,88.4
6642,In0.95Pb0.05,3.685
6643,Y1Ba2Cu2.8Zn0.2O6.85,30.69
6645,Hf1Nb1C1,7.5
6646,Nb0.79Al0.16Ge0.05,21.0
6647,Pb1Te1,3.476666667
6651,Y1Ba2Cu3O6.795,82.5
6652,Ho1Ba2Cu2.94O6.48,20.0
6653,U1Ni2Al3.02,1.135
6654,Y1Ba2Cu3H0.27O6.91,91.1
6655,Os1Ta1,1.95
6656,Ca1Al0.1Ga0.9Si1,3.34
6658,Ca9.16Tb0.84Pt3Fe10As18,23.7
6659,Ga0.296V0.704,12.1
6661,Cu0.03Ta1S2,3.79
6664,Nb25Ti74Mo1,7.3
6665,Tl1.89Ba2Cu1.11O6.18,49.0
6666,Hg1Ba2Ca1Cu2O6.19,122.0
6668,Ti0.01V0.99,5.42
6669,Nd1Fe1As1O0.6,53.5
6670,Nb1Ta1V1Sn1,6.2
6671,Gd0.32Pr1.53Ce0.15Cu1O4,13.6
6672,Nb3Sn0.49Ga0.51,16.4
6673,Au0.22La0.78,3.4
6675,La0.25Dy0.75Ba1Ca1Cu3O7,59.0
6676,Ca1Li2,13.0
6677,Y1Ba1.6Sr0.4Cu4O7.95,82.0
6678,Tm1Ni1.94Co0.12B2C1,5.9
6680,Y1Ba2Cu2.94Zn0.06O6.96,71.0
6681,Fe1Te0.8S0.2,7.36625
6682,Bi4Ca3Sr3Cu4O16.32,80.0
6684,Mo0.815Re0.185,8.27
6686,Ta1S1Se1,3.36
6687,Sr1Fe1.84Ni0.16As2,8.65
6688,K1Rb2C60,27.0
6690,Dy1Ba2Cu4O8,74.46666667
6691,La3S4,6.7257142860000005
6692,Ti0.64Ta0.075Nb0.285,8.73
6693,La1.69Nd0.2Ba0.11Cu1O4,8.2
6694,Nd1.665Gd0.185Ce0.15Cu1O4,19.0
6695,Hf0.6V2Zr0.4,9.9
6696,La0.7Th0.3Bi1S2O1,2.04
6697,La1.9Th0.1C1.35,12.7
6698,Nb0.2Ta0.8,4.64
6703,V2.94Fe0.06Si1,13.4
6704,La1.03Pr0.85Sr0.12Cu1O4,18.0
6707,Y0.8Th1.2C2.7,15.1
6709,Pb0.8Sr0.8Ba1.2Y0.7Ca0.3Cu3.2O8.3,75.0
6710,Y1Ba2Cu2.925Zn0.075OY,64.9
6711,C0.2N0.8Nb0.8V0.2,5.5
6712,Hg1Sm1Pb2,5.9
6713,Nd1.85Ce0.15Cu0.97Zn0.03O4,11.0
6715,Hg1Ba2Cu1O4.15,97.0
6717,Mg0.956Al0.044B2,34.0
6718,Bi0.56Pb0.44,8.8
6719,W0.474O0.106C0.42,3.85
6720,La3Pd4Si4,2.065
6721,Y0.5Eu0.5Ba2Cu4O8,77.0
6723,Bi0.045Sn0.955,3.88
6724,Pr1.74Ce0.15Sr0.11Cu1O3.96,18.0
6725,La3In0.5Tl0.5,8.9
6726,Lu0.9Dy0.1Ru1B2,7.34
6729,B2.03Nb1,5.26
6732,Nd1Fe1As1O0.85,51.45
6733,Y1Cu2B2C1,10.0
6734,Fe1Se0.164Te0.656,13.1
6735,Pr1Ni0.79Bi1.98,4.2
6736,Mo0.2Nb0.608Pd0.192,1.34
6738,Tl0.5Pb0.5Sr4Cu2C0.5N0.5O7,70.0
6739,H0.4La1.89Sr0.11Cu0.995Fe0.005O4,13.5
6740,Nb3Ga0.9Zn0.1,16.1
6741,Co25Zr75,3.325
6742,Cs0.3Mo1S2,6.55
6743,Ba1.6Sr0.4Yb0.65Ca0.35Cu3O6.28,51.0
6744,Cd0.17Tl0.83,2.3
6745,Li0.37Hf1N1Cl1,20.0
6746,Nb3Sn0.8Ge0.2,17.78333333
6747,Y1Ba2Cu2.9Ni0.1O6.88,69.5
6748,C2Mo1Re1,3.8
6749,Nd0.7Pr0.3Ba1Sr1Cu3O6.87,34.0
6750,K0.86Fe2Se1.82,30.05
6751,Ga1Pt1,1.74
6752,Bi1Pb1Sr1.2La0.2Cu1O6,24.0
6753,H0.985Pd1,7.39
6754,Ba0.5K0.5Fe2As2O1,36.0
6757,V2.799Mo0.201Ga1,11.7
6758,Pb0.36Sn0.64,7.75
6760,Gd1Sr2Ru1Cu2O8,16.45
6761,Y0.7Ca0.3Ba2Cu2.55Co0.45O6.84,53.0
6763,Sr0.7Ba1.3Y1Cu2.8Al0.2O7.03,12.0
6765,H0.27La1.89Sr0.11Cu0.995Fe0.005O4,13.8
6767,Bi4Sr4Ca1Tm1Cu4O16.67,37.7
6769,Pd0.1Zr0.9,7.5
6770,Cu0.7Nb0.29Ta0.01,9.25
6771,Y1Ba2Cu3O4.86,93.2
6772,Ba1Fe1.77Ni0.23As2,3.53
6773,Mg0.85Li0.15B2,36.6
6774,Mg0.7Be0.3B2,39.0
6775,H0.11S2Ta1,4.2
6776,Ta0.0082V0.9918,4.9
6778,Y1Ba1Sr1Cu2.95Sn0.05O6.96,73.8
6779,Y1Ba2Cu0.95Zn0.05O7.95,46.0
6780,Mg1B1.7Be0.3,32.9
6781,Na1Fe0.97Co0.03As1,21.13333333
6782,Ho1Ni1.972Co0.056B2C1,2.4
6783,Na1Fe0.9825Co0.0175As1,15.8
6784,Pr0.8Sr0.2Fe0.95Co0.05As1O1,7.05
6787,Re0.98Rh0.02,2.0140000000000002
6791,Tl1.8Ba2Ca0.85Cu2.2O8,104.0
6792,La2Cu0.97Zn0.03O4.1,7.3
6793,Eu1.2Ce0.8Sr2Ru1Cu2O10,30.0
6794,Mo6Se7.5Te0.5,6.69
6795,Ga0.1Nb1Se2,2.7
6796,V3Si0.6Al0.4,10.1
6797,La1Ba1Sr1Cu3O6.94,57.0
6799,Y0.4Ca0.6Ba1.1La0.9Cu3O7.12,82.0
6802,Na0.25Co1H2.6O3.3,4.7
6803,Mo6Pb0.92S7.5,14.6
6804,Y1Ba2La1.94Cu3O6.963,91.8
6805,Ge0.4Cu0.6Sr2Ca1.7Y0.3Cu3O9.3,77.0
6806,Pb0.6Cu0.4Sr0.9La1.1Cu1O5.06,37.6
6807,Y1Ba2Cu2.982Zn0.018O6.75,57.8
6809,Cd1Hg1,1.306666667
6810,Yb0.7Ca0.3Ba1.6Sr0.4Cu3O6.73,68.05
6811,La3Co2Ru2Sn13,4.0
6813,Sm1.8Ce0.2Cu1O4,14.7
6814,Ag0.12In0.88,4.69
6816,Tl2Ba2Cu1O5.957,38.0
6817,H0.3Li1Nb1O2,5.5
6819,Y1La0.3Ba1.7Cu4O8,52.6
6820,Ti45Nb40Si15,5.1
6821,La1.795Nd0.08Sr0.125Cu1O4,29.5
6823,Pb0.5Sr2Y0.6Ca0.4Cu2.5O6.97,67.0
6825,Y0.8Pr0.2Ba2Cu3O6.65,51.7
6828,Y1Ba2Cu3H0.31O6.54,47.3
6829,Sr0.57Eu0.43Fe1.76Co0.24As2,8.78
6831,Sm1Fe0.9Zn0.1As1F0.2O0.8,18.2
6832,Mo2B1C1,7.5
6834,Ba2Ca3Cu4F1O9.0,103.0
6835,Y1Ba2Cu2.95Fe0.05O6.69,43.5
6836,La1.85Sr0.15Cu0.9975Zn0.0025O4,34.8
6837,Ba0.5K0.5Fe1.8Ru0.2As2,36.5
6838,Tl1Sr1.5Dy0.5Ca1Cu2O7,80.0
6841,Bi2Sr1.3Ca1.7Cu2O8.19,76.5
6842,Ba1.6Sr0.4Yb1Cu3O6.53,34.0
6843,Hg0.92Ba2.05Cu1.03O4.063,93.4
6845,Nb1Sn1Ta1V1,6.2
6847,La0.8Ca0.1Pr0.1Ba1.5Sr0.5Cu3O6.856,56.0
6848,Sm0.8Pr0.2Ba2Cu3O6.85,26.0
6849,Lu1Ni1B0.95C0.95,2.5
6851,Hg0.95Re0.05Ba2Cu1O4.37,96.0
6852,Al0.72Nb3.28,6.2
6853,Y1Ba2Cu2.988Zn0.012OY,85.0
6854,Y1Ba1.4Sr0.6Cu4O7.95,82.0
6856,Y1Ba2Cu2.9Ni0.1O6.71,29.0
6857,La3In0.7Al0.3,9.42
6858,Eu1Ba1.5Pr0.3Sr0.2Cu3O6.81,28.0
6859,La3Co4Sn12.35In0.65,5.1
6861,V3Si0.87Ga0.13,13.3
6862,Y1Ba2Cu3.924Zn0.076O8,30.1
6864,Y1Ba2Cu2.7Zn0.3OY,47.6
6865,Nb0.05Re0.75Ta0.2,9.8
6867,Y1Ba2Cu2.9Fe0.1O6.75,37.4
6868,N0.86H2.58Na1Rb2C60,12.0
6871,Nd1Ba1.4Sr0.6Cu3O6.94,75.0
6872,Sn0.6723Pb0.1677In0.16Te1,3.11
6873,Dy1Ba1Sr1Cu3O6.93,83.0
6874,Nb0.25Sn0.25Ta0.25V0.25,6.2
6875,Nd1.85Ce0.15Cu0.996Ni0.004O4,13.5
6879,La0.81Dy0.06Sr0.13Fe1As1O1,16.5
6880,Sm1La0.8Sr0.2Cu1O3.945,26.0
6881,Hf0.96Rh0.04,2.34
6882,Na1Fe0.9875Co0.0125As1,13.9
6884,La1.89Ce0.11Cu1O4,27.1625
6885,Nd1.85Ce0.15Cu1O3.95,22.1
6886,Yb1Ga1.15Si0.85,2.6
6887,Nb3Sn0.5Al0.5,16.2
6888,La2Cu1O4.066,38.0
6890,Mg0.99Mn0.01B2,33.4
6891,Be40Zr60,2.1
6893,Hg1Ba2Ca2Cu3O8.29,135.0
6895,La0.7Y0.3,1.85
6896,Hg0.85Mo0.15Sr2Cu1O4,66.0
6897,La6Ni2Sn1,2.25
6899,Bi2Sr2Ca0.6Y0.4Cu2I1O8,66.0
6900,Ti0.3Zr0.7,1.36
6903,Ag1In2,2.35
6904,Y0.8Pr0.2Ba2Cu3O6.98,72.6
6907,Y3Os4Ge13,3.9
6908,Ta1S0.4Se1.6,3.04
6909,Ba0.47K0.53Bi0.995Pr0.005O3,9.0
6910,Pb0.5Sr2Ca0.5Tm0.5Cu2.5O7,72.0
6911,La1.884Ba0.116Cu1O4,21.8
6912,La0.8Th0.2Bi1S2O1,2.046
6913,Ba1Fe1.678Ru0.322As2,9.31
6915,Ru0.9Sr2Y1Cu2.1O7.9,30.0
6919,Na2Cs0.75C60,7.0
6921,Re0.5W0.5,6.61
6922,Sn0.704Pb0.176In0.12Te1,2.98
6923,In0.01Pb0.99,7.172999999999999
6924,Tl0.8Bi0.2Ba2Ca2Cu3O9,116.0
6925,In0.8La3Sn0.2,7.8
6926,Ga29.6V70.4,12.1
6927,Nb3.07Al0.5859Ge0.279,17.4
6928,La1.97Sr0.03Cu1O4.06,39.0
6929,V3Si0.25Ga0.75,8.1
6931,Ba1.6Sr0.4Yb0.8Ca0.2Cu3O6.04,13.0
6934,W7Re13B1,7.1
6935,Bi1.6Pb0.4Sr2Ca2Cu3O10.24,73.3
6938,La1Fe1As1H0.55,30.5
6942,Fe1Te0.9S0.1,10.0
6945,La0.77Y0.23Fe0.995Mn0.005As1F0.11O0.89,27.9
6946,Ge0.27V0.73,6.6
6947,Th0.9La0.9Ru2,3.05
6949,Ba1.6Sr0.4Yb0.95Ca0.05Cu3O6.56,30.0
6950,C8K1Hg1,1.88
6951,Eu1Ba2Cu2.7Co0.3O6.95,29.4
6953,Ba1.6Sr0.4Yb0.65Ca0.35Cu3O6.52,79.0
6954,La1.73Sr0.27Cu0.92Mn0.08O4,37.0
6955,B0.03C0.51Mo0.47,12.5
6957,Al0.3Ga0.7V3,13.9
6959,N0.84Nb1,13.5
6963,Mo6Pb1S7,14.0
6964,Y1Ba2Cu2.841Co0.159O6.8,54.0
6965,Bi2Sr1.7La0.3Ca1Cu2OY,86.0
6966,Ce0.6Nd0.4F0.7Bi1S2O0.7,3.25
6967,Y1Ba2Cu3.96Ga0.04O8,77.5
6968,Ba1Au0.3Si1.7,3.2
6971,Ba1Fe1.25Ru0.75As2,21.0
6972,La1Fe0.89Co0.11As1O1,14.0
6973,Hg0.75Mo0.25Ba2Cu1O4.59,12.0
6974,Sr2Tm1Cu3O7.65,62.0
6975,Th1Ir1Si1,6.5
6977,La1.3Ba1.7SrCu3O6.885,32.0
6978,La1Bi1S2F0.9O0.54,4.55
6979,La2.95Ce0.05Ni2B2N2.7,10.2
6980,Sm1Ba2Cu2.96Fe0.04O6.81,78.0
6981,Y0.75Eu0.25Ba2Cu4O8,78.0
6982,Y3Os8B6,5.8
6986,Fe1Se0.85,9.62
6987,Fe0.5Ba1Sr1Ho1Cu2.5O7.462,45.2
6988,Pr1.85Ce0.15Cu0.96V0.04O3.98,22.4
6991,Y2Ba4Cu7O14.95,67.0
6993,Ca0.4Ba1.35La1.25Cu3O6.9,5.0
6994,Fe1Se0.779Te0.041,8.12
6995,Ba6C60,7.0
6996,Pb2Sr2Y0.5Ca0.5Cu3F0.8115O7.3458,78.0
6998,Eu1.4Ce0.6Ru1Sr2Cu2O10,40.0
6999,Ca2Cu1Cl2.2O2,30.0
7000,Sm1.15Ba1.85Cu3O6.95,77.3
7001,Y1Ba1Sr1Cu2.975Sn0.025O6.92,77.0
7004,Si2Sr1,1.55
7005,Y0.75Ca0.25Ba2Cu4O8,82.9
7006,Nb1C0.3N0.57,16.4
7007,Bi2Sr2Ca0.8Y0.2Cu2I1O8,75.0
7010,Ho1Rh3.72Ru0.28B4,6.42
7011,La0.96Nd0.04,1.705
7012,Be13Ga1,5.6
7013,Zr33.3V45.5Nb21.12,4.36
7014,Li2Pd2.85Ni0.15B1,7.663333333
7015,Sm1.295Gd0.555Ce0.15Cu1O4,8.5
7017,Sr1Fe1.3Ru0.7As2,16.8
7018,Si2W3,2.84
7019,Co0.05Rh0.04Ti0.91,4.0
7020,Nb80Ga13Co7,7.92
7022,Y1Ba2Cu3O6.791,86.9
7024,N1Nb0.9V0.1,6.6
7026,Ba1Fe1.9Se3,11.0
7027,Ca1Si1.9,1.35
7028,Sr2Ho1Ru0.9Cu0.1O6,30.0
7030,Hf1V2.3,9.2
7031,Ba1Fe1.945Ni0.055As2,7.4
7032,Nb1C0.3N0.7,17.75
7033,Cu0.05Ir1Te2,2.84
7034,Er1Ba2Cu2.94Zn0.03Fe0.03O6.94,76.0
7036,Ba2Ca3Cu4F1.6O8.4,78.0
7038,Eu1Ba1Sr0.7Ca0.3Cu3O6.95,75.0
7039,Y1Ba1.6Sr0.4Cu4O8,79.5
7041,Sr1.5Ba0.5Y1Cu2.8Ti0.2O7.2,78.0
7042,Nb0.9Mo2.1Al1,2.73
7044,Ga24.8V75.2,15.1
7045,Mg0.96Mn0.04B2,32.3
7046,Si1Ta1,4.28
7047,Pb0.5Sr2Ca0.5Eu0.5Cu2.5O7,60.0
7048,Nd1Bi0.98Pb0.02S2F0.3O0.7,5.17
7049,Be9.8Re0.02,9.5
7050,Y0.88Ca0.12Ba2Cu2.88Co0.12O6.78,87.0
7051,Nd0.6Sm0.4F0.3Bi1S2O0.5,5.52
7054,Re0.9993Mo0.0007,1.694
7057,Y1Ba1.5Sr0.5Cu3O6.98,86.0
7058,Th1Rh4B4,4.448
7059,In0.05Sn0.95Te1.01,1.43
7060,Mo0.97Fe0.03Ga4,5.13
7062,Rh3Th7,2.15
7063,Bi0.8Sn0.2,7.3
7064,Tl1.75Cd0.25Ba2Cu1O6,88.0
7067,B1Re2,3.7
7068,Gd0.75Nd1.1Ce0.15Cu1O4,10.1
7070,Y0.25Cd0.75Ba2Cu3O7,53.2
7071,K0.42W1O3,1.34
7073,Ba0.48K0.52Bi1O2.9,21.1
7077,La1Ni1As1F0.1O0.9,3.9
7079,Bi2Sr2Dy1.64Ce0.36Cu2O10.26,27.0
7080,Pb1Sb1,4.05
7082,Eu2.17Ce0.5Sr1.33Cu2.5Co0.5O9.08,34.9
7083,Ce1Fe1As1O0.85,42.6
7084,Mg0.9Al0.05Li0.05B2,37.1
7085,Pr0.65Sr0.35Fe1As0.95P0.05O1,15.4
7088,Y0.6Pr0.4Ba1.6Sr0.4Cu3O6.87,44.0
7089,Ga1Si1V3,18.6
7090,Nb3Al0.94Ge0.06,20.0
7091,Y1Ba2Cu2.9Al0.1O6.93,92.0
7093,V75Si12.5Ga12.5,8.15
7094,C60Sr4,4.4
7096,V0.767Ga0.086Al0.147,12.1
7097,C0.53Sr1.99Ca0.56Y0.45Cu2.39O6.94,54.2
7099,C0.9N0.1Sr2Cu1O5.35,13.0
7102,Ba0.9Yb0.1Fe2As2,20.0
7103,Mo7Re13B1,8.3
7104,Bi1.08Ta2S5.08,2.7
7105,N0.93Nb0.85Zr0.15,13.8
7109,Ca1.76Na0.24Cu1Cl2O2,26.9
7111,Y0.8Ca0.2Ba1.5La0.5Cu3O7.11,80.0
7113,Sc1C0.75Ge0.02,8.5
7115,Y1Ba2Cu2.5Ni0.5O7,52.3
7116,Mo0.9Hf0.1C1,11.9
7117,Nb78Ga21Mn1,11.2
7118,In0.06Pb0.94,7.061
7120,Os0.74W0.26,4.4
7121,Tc0.9V0.1,11.32
7122,Gd1Fe1As1O0.85,53.5
7124,La1.905Ba0.095Cu1O4,29.0
7125,Nb3Sn0.91Al0.09,17.8
7127,La0.8Sr0.2Ni1As1O1,3.5
7129,Y1Ba1.5Sr0.5Cu3O6.91,86.3
7130,La0.85Th0.15Bi1S2O1,2.85
7131,Nb2.973Zr0.027Al1,16.6
7134,Sr3Cu2Cl1O5,70.0
7135,Re0.994W0.006,1.84
7136,Os0.002Re0.998,1.71
7137,Ir0.95Pt0.05Te2,2.683333333
7138,Y1Ba2Cu3.95Zn0.05O8,47.25
7140,Bi2Sr1.8Ca1Dy0.2Cu2O8.26,89.2
7141,Mo0.62Os0.38,5.65
7142,La2.5Y0.5Ca1Ba3Cu6.58Fe0.42O16.599,68.0
7144,Ba2Bi2.75Sb0.25,4.46
7145,Rh15Ir2S15,3.5
7147,Cu0.8W0.2Sr2Y1Cu2O7.3,77.0
7148,La1.821Ce0.179Cu1O4,7.225
7149,Mg1B0.85C0.15,24.0
7151,Bi4Sr4Ca2Cu4O16.25,82.4
7153,H0.54Nb0.65Pd0.35,1.67
7155,Hg0.8Mn0.2Ba2Cu1O4.2,91.0
7156,Ru0.4Rh0.6P1,1.27
7158,Ir3Te8,1.8
7160,Bi8Sr7Ca5Cu9O34.13,72.5
7161,H0.1Ta1S2,3.9
7162,C3Er0.4Th1.6,8.2
7166,Hf1Ir1Si1,3.5
7167,K0.3Re1O3,3.6
7170,Mo3Sb7,2.97
7172,Y1.8Au0.2C2.6,10.1
7173,Ba0.7Rb0.3Ti2Sb2O1,5.93
7175,Er0.97Pr0.03Ba2Cu3O7,93.9
7178,Pb2Sr2Y0.5Ca0.5Cu3F0.253O7.9858,68.0
7179,Th1.2Sc0.8C3,7.1
7180,Eu0.8Pr0.2Ba2Cu4O8,63.5
7181,Rb0.8Fe2Se1.8Te0.2,25.05
7184,C0.1N0.9Nb1,8.5
7185,Cu30Sn70,4.91
7187,Tl1Ba2Cu1O5,95.0
7189,Y0.7Zn0.3Ba2Cu3O7,23.5
7190,Gd0.6Ca0.25Hf0.15Ba2Cu3O7,81.3
7191,Ba1Fe2As3,35.4
7192,Cu1.2Rh1.8S4,5.08
7194,Fe0.5Ba1Sr1Er1Cu2.5O7.439,47.8
7195,Y1Ba2Cu3H0.06O6.91,92.8
7196,Ni2Zr0.7Nb0.3Ga1,2.3
7197,Lu0.65Pr0.35Ba1.7Sr0.3Cu3O6.93,52.0
7198,La0.9Pr0.1Pt2.1B2.4C1.2,9.0
7199,Bi2Sr2Ca0.9Y0.1Cu2O8,76.5
7201,Dy1Ba2Cu3O6.82,92.7
7202,Y0.69Ca0.31Ba2Cu3O6,27.7
7203,Pt5Th1,3.13
7204,La1.85Sr0.15Cu0.985Co0.015O4,14.75
7205,Na2K1C60,2.5
7208,In4Sb1Te3,1.4