,composition,Tc
12280,Hf1V1.7Fe0.3,5.0
12282,In2Sb1Te2,1.06
12283,Bi2Sr2Ca1Cu2O8.1,90.0
12286,Ti0.36V0.54Al0.1,2.7
12287,Be35Zr65,2.6
12288,Hg1Ba2Cu1O6.932,50.0
12289,Ru0.95Ti0.05Sr2Gd1Cu2O8,32.2
12291,Al1Ge1Nb3,19.5
12292,Co0.02V0.98,2.61
12293,Ba1Pb0.8Sb0.2O3,1.7
12294,V3Si0.72Ga0.28,10.5
12297,Li0.34Cs1Ca2Nb3O10,5.4
12299,Y1Ni1.8Co0.2B2C1,6.75
12301,Ce1Ru3Si2,1.25
12302,Ir0.03Zr0.97,3.19
12304,Sn1O1,1.4
12306,La1.7Sr0.15Na0.15Cu1O4,37.0
12307,Nd1Fe1As1O0.2,54.0
12309,Bi2Sr1.5Ca1.5Cu2O8.25,67.0
12310,Hg1Ba2Cu1O4.045,73.0
12311,Y1Ba2Cu2.85Zn0.15OY,56.0
12312,Nb1Os2,2.52
12314,In0.25Sb0.75,4.1
12315,Mo0.725Nb0.061Re0.187,5.0
12316,Mg0.854Au0.146B2,25.6
12318,Ba0.6K0.4Bi0.933Pr0.067O3,11.1
12320,Ca0.88La0.12Fe1As1.8Sb0.2,47.2
12321,Rb0.75Fe1.6Se2,32.0
12323,N0.87H2.61Na1K2C60,11.0
12327,Pr1.79Ce0.15Sr0.06Cu1O3.94,21.0
12333,Sr0.5Ce0.5F1Bi1S2,2.755
12335,La1.869Ba0.131Cu0.99Ni0.01O4,7.0
12336,Sr1Fe1.76Zn0.04Co0.2As2,12.1
12338,La1Pt0.9Ni0.1Si1,3.23
12339,Y0.8Ca0.2Ba1.5La0.5Cu3O7.13,73.0
12340,Y1Ba2Cu2.95Fe0.05O6.73,52.7
12341,Nb3Al0.97Ge0.03,19.6
12342,Fe0.5Ba2Tm1Cu2.5O7.43,60.0
12343,Hg0.7Bi0.3Sr2Ca2Cu3O8.15,110.0
12346,Mg0.99Sn0.01B2,33.5
12347,Sr2Tm1Cu3O7.28,56.0
12349,Nd0.8Ca0.1Pr0.1Ba2Cu3O7.02,70.8
12350,Nd1Ba2Cu3O7.16,95.3
12351,La0.75Ca0.15Pr0.1Ba1.5Sr0.5Cu3O6.845,62.0
12352,Y1Ba2Cu2.97Zn0.03O6.75,58.0
12353,La1.85Sr0.15Cu0.995Ga0.005O4,29.8
12354,Y1Ba1.8La0.2Cu3O7,79.05
12355,In1N1,1.975
12356,Eu1Ba2Cu2.9Co0.1O6.97,72.7
12357,Re0.7W0.3,4.9
12358,Nb76.3Sn7.1Al14.3Ge2.3,13.9
12359,Ru0.1Zr0.9,5.7
12360,C60Yb2.75,3.8
12361,Ge0.6Pd0.4,3.1
12363,Y0.95Ca0.05Ba2Cu3O6.79,88.0
12365,La0.2Mo6.35Pb0.8S8,13.2
12366,Ca1Fe0.9Co0.1As1F1,22.93333333
12367,La0.1Sm0.9Bi1S2F0.5O0.5,5.2
12371,H0.886Pd1,3.478
12372,Ba1Fe1.52Ru0.48As2,15.55
12374,Dy1Rh1.2Ir2.8B4,1.63
12375,Zn0.04Zr1N1Cl1,15.0
12376,Na0.65H5Sn1.16S5.16Ta2O2.5,4.0
12378,Tl1Sr1.5Ca0.5Yb1Cu2O7,55.0
12379,Co1U6,2.358
12380,Li1Zr1N1Cl0.255Br0.745,14.1
12381,Er0.85Pr0.15Ba2Cu3O7,82.9
12382,Bi1.8Pb0.2Sr2Ca1Cu1.84Co0.16O8,35.8
12383,Nb0.6Al0.08N0.79O0.21,7.0
12385,Y1.8Ti0.2C2.9,14.2
12386,Hg0.75Ba2.07Ca2.07Cu3.11O8.16,134.2
12390,Be22Re0.99Ru0.01,9.2
12391,Lu0.7Pr0.3Ba1.7Sr0.3Cu3O6.89,61.0
12392,Bi2Sr1.2Ca1.8Cu2O8.199,76.5
12393,Rb0.23W1O3.05,5.01
12396,Y1Ba2Cu3F0.1O7,91.0
12397,Pr1.85Ce0.15Cu1O4.065,16.75
12399,Sc1Ir1P1,3.46
12401,Fe1Te0.93Se0.07,8.2
12402,Ho0.65Dy0.35Ni2B2C1,5.905
12404,La1.877Ba0.123Cu1O4,23.6
12406,Y1Ba2Cu3Li0.1O7,88.91
12407,Na0.3Co0.985Mn0.015H2.6O3.3,3.34
12408,Sc0.2Y0.8Ir3.6Rh0.4B4,3.01
12409,Sn0.91Zn0.09,3.722
12411,Na0.346Co1H2.6O3.3,4.81
12413,Th1In0.75Sn2.25,3.36
12415,Ge0.22Nb1,5.3
12416,Bi1.5Pb0.5Sr1.5La0.5Cu1O6.074,18.1
12417,Au0.242Nb0.758,10.56
12418,Ag0.15Pb0.975Sn0.01,7.25
12419,Na4H4C60,15.0
12420,Sr0.5La0.5Bi1S2F1,2.92
12421,Y0.5Pr0.5Ba2Cu3O6.65,18.7
12422,Nb0.75Ti0.15Zr0.1,9.7
12423,Hg0.85Re0.15Ba1.66Sr0.34Ca2Cu3O8,131.3
12427,La1.8Nd0.2Cu1O4.07,35.3
12428,Tm1Ni1.96Co0.08B2C1,7.7
12431,Sr0.8Y0.2Cu1O2,38.6
12432,Ca1Al0.8Si1.2,4.05
12433,Lu5Ir1.2Rh2.8Si10,4.8
12436,Sn0.32Pb0.48In0.2Te1,3.35
12438,Pb0.812Sn0.348Ti2Se5.16,4.02
12439,Sm1.28Ba1.72Cu3O7.03,43.6
12441,Hg1Ba2Ca1Cu2O6.21,127.0
12442,Y0.8Ca0.2Ba2Cu2.8Co0.2O6.83,69.0
12446,B2Nb0.8,4.55
12447,Bi1Cu1,1.8
12449,Bi0.132Mo0.198Cu2.67Sr2Y1O7.2,29.0
12454,Pr1Pt2B2C1,6.0
12456,Hf0.906Mo0.094,2.71
12458,Hg1Ba2Ca2Cu3O8.22,108.5
12459,Y1Ba2Cu2.85Ni0.15O6.97,77.2
12460,La2Cu1O4.05,32.0
12461,Mg1.995Mn0.005B2,37.7
12463,In0.488Na0.025Pb0.488,6.0
12464,Y1Ba1Sr1Cu3O6.91,81.0
12465,Pb0.6Cu0.4Sr1La1Cu1O5.05,37.6
12466,Ca1Hg1,1.6
12467,Y1Ba2Cu2.94Zn0.06O6.77,44.0
12469,Zr1Os1As1,8.0
12470,Bi2Sr2Y1.64Ce0.36Cu2O10.22,20.0
12471,Y1Ba2Cu3O6.887,89.8
12472,Nb0.6Ru0.6Sr2Eu1.5Ce0.5Cu2O10,41.4
12473,Y1Ba1Sr1Cu3O6.98,82.8
12474,Ca1Ba1La1Cu3O7,47.0
12475,La1Ba1Cu2.82Co0.18O7,14.0
12476,Y1Ba2Cu3H0.1O6.795,75.0
12478,La0.75Sm0.25Ba1Ca1Cu3O7,71.0
12479,Tm0.9Lu0.1Fe3Si5,1.65
12480,Ca1Al1.2Si0.8,5.21
12481,Tl0.47Rb0.34Fe1.63Se2,32.0
12482,Re0.025Ta0.975,3.458
12484,La1.5Ba1.1Ca0.4Cu3O7.082,62.0
12485,Y1La1Ba4Cu6O13.95,72.2
12486,Y1Ba1.86La0.14Cu3O6.96,91.9
12487,Y1Ba2Cu3S0.06O7.23,89.0
12488,Nb3Al0.9B0.1,19.8
12489,Nb13.75Ta41.25Ir45,3.315
12490,Hg0.9Ba2Cu1O4,73.0
12492,Y1Ba1.95La0.05Cu3O6.96,93.8
12494,Y1Ba1.92La0.08Cu3O6.96,94.0
12496,Ga0.4Nb0.6,20.3
12499,La0.9985Tb0.0015Al2,2.9
12500,Ir0.95Te2,4.68
12502,Y0.9Zn0.1Ba2Cu3O7,54.9
12505,Y1Ba2Cu3.8Ga0.2O8,70.25
12506,Cr0.33Re0.67,2.29
12507,La1.774Sr0.226Cu1O4,19.8
12508,Er1Ni1.92Fe0.08B2C1,4.63
12509,La1.85Sr0.15Cu0.978Zn0.022O4,13.6
12510,Pd2Yb1Pb1,2.65
12511,La0.05Th0.95,1.3
12512,Pr1Ru4As12,2.3825
12515,Y1Ba2Cu2.91Zn0.09O6.75,23.0
12517,Bi2Sr2.8Nd0.2Cu2OY,62.94
12520,Hf0.654Mo0.346,2.92
12521,Nd1Fe0.97Mn0.03As1F0.11O0.89,11.9
12522,Y0.7Pr0.3Ba2Cu4O8,63.66666667
12523,Pb0.5Sr2Ca0.5Dy0.5Cu2.5O7,65.9
12524,Sn0.7In0.3Te1,3.595
12525,Cs3Hg3.3C60,29.0
12527,Y1Ba0.75Sr1.25Cu3O6.94,74.0
12528,Cu0.29Bi2Se3,3.2
12530,La1Ba1Ca1Cu2.6Ni0.4O6.854,24.0
12531,Ba1Fe1.83Zn0.04Co0.13As2,20.0
12532,Eu0.6Sr0.4Ba1.6Pr0.1Cu3O7.06,50.0
12533,La1.1Ba1.5Ca0.4Cu3O6.76,34.0
12535,La1.835Sr0.165Cu0.995Ni0.005O4,33.0
12536,La1.85Sr0.15Cu0.98Ti0.02O4,32.3
12537,Ni2Nb1Ga1,1.54
12538,Ba2Ca1Cu2F2O4,82.0
12539,Mg1B1.4Be0.6,8.3
12541,Yb0.7Pr0.3Ba1.7Sr0.3Cu3O6.93,63.0
12542,Ba0.47K0.53Bi0.972Pr0.028O3,4.0
12543,La1.985Sr0.015Cu1O4.024,16.0
12546,C1.55W0.1Y0.9,14.5
12547,Fe0.9Se0.25Te0.75,9.7
12548,Yb0.925Pr0.075Ba2Cu3O6.97,89.0
12550,Sr1Fe1.792Co0.208As2,13.9
12551,Bi2Sr2Ca1Cu2O8.214,70.0
12552,Ca0.95Ce0.05Ba1La1Cu3O6.91,64.8
12553,N0.85H2.55Na1K2C60,9.0
12555,Ba0.65K0.35Bi1O2.99,18.7
12556,Zr0.926Lu0.074B12,4.78
12558,Nb2Sn1V1,9.8
12559,Rh5Th1,1.07
12560,Ba6Sr2Si46,7.2
12561,Hg1Ba2Ca2Cu3O8.16,101.0
12563,Zr2Co0.75Ga0.25,5.1
12564,C1.5La0.9Th0.1,12.9
12565,Rb0.1Li0.05W1O2.85F0.15,3.1
12566,Sm1Ba2Cu3O6.75,38.4
12568,Ba1Fe2As1.52P0.48,30.1
12572,Y1Ba2Cu3H1O7,93.2
12573,Cu0.5C0.5Ba2Ca3Cu4O11,117.0
12574,U0.85La0.15Pd2Al3,1.2
12576,Y1Ba2Cu2.95Zn0.05OY,74.7
12578,Y1Ba2Cu2.5Fe0.5O7.413,80.0
12580,B0.6C0.4Sr0.5Ba1.5Ca2Cu3O9,119.0
12581,Ba0.82Pr0.18Fe2As2,6.2
12582,Bi2.14F0.27S2O0.73,2.7
12583,B5Mo1.7V0.3,5.5
12584,Y1Ba2Cu3F0.2O7,91.0
12585,La1.882Ba0.118Cu1O4,9.0
12590,Cu0.14Bi2Te3,6.0
12593,Rb0.8Fe2Se1.9Te0.1,26.25
12594,Y0.9Ca0.1Ba2Cu3O6.91,81.1
12595,Gd1Fe1As1F0.17O0.83,22.0
12596,La1.762Sr0.238Cu1O4,19.5
12597,Na0.5Ti1N1Cl1,16.3
12598,Lu4.98Yb0.02Ir4Si10,3.0
12599,In0.08Pb0.92,7.025
12600,Nd1.85Y0.15Cu1O4,21.0
12601,Y1Ba0.5Sr1.5Cu3O6.98,78.0
12603,Li1.05Ti1.95O4,11.25
12604,Mo0.45Tc0.55,14.0
12606,La3Sc4,8.6
12607,Ni0.06Ta1S2,1.9
12608,Y0.6Pr0.4Ba0.6Sr1.4Cu3O6.89,49.0
12610,Nd0.8Ca0.2Ba1Sr1Cu3O6.78,77.0
12611,Tc2Zr1,7.6
12612,Sr1Pd2Si0.04Ge1.96,2.72
12613,Ba1Fe1.48Ru0.52As2,20.05
12614,Y0.84Sr2.16Cu2.78S0.22O7,45.0
12615,Y1Ba2Cu3O6.666,60.5
12616,La1.5Ba1Ca0.5Cu3O6.801,30.0
12617,Y1Ni1Cu1B2C1,10.1
12618,Si1V2.7Ti0.3,10.9
12625,Nd1.8Cu1O4,31.3
12626,Mo0.6Pt0.05Re0.35,9.8
12628,H0.87Pd1,3.625
12629,Er0.134Ho0.866Rh4B4,6.15
12630,Ca0.85K0.15Cu1Cl2O2,24.0
12631,La1.79Sr0.21Cu0.995Zn0.005O4,20.0
12632,Pb0.5Sr1.75Nd0.25Eu1.5Ce0.5Cu2.5O9,32.0
12638,Ba0.525K0.475Bi1O2.917,25.9
12639,Ru0.925Ti0.075Sr2Gd1Cu2O8,29.2
12640,La1Rh1Al1,2.4
12642,Pd0.04Rh0.29Zr0.67,8.56
12643,La1Bi1S2F0.3O0.77,3.1
12645,Ba1Fe1.936Co0.044Cu0.02As2,2.35
12646,Nd1.665Y0.185Ce0.15Cu1O4,16.0
12647,Y1Ba2Cu2.955Fe0.045O6.93,91.4
12649,Bi1.4Pb0.6Sr2Ca1.8Ga0.2Cu3O7,68.2
12650,K0.8Fe2Se1.96,29.5
12651,Ca1Rh2,6.4
12652,Fe0.5Ni0.5U6,2.1
12653,Sr1Fe1.88Ni0.12As2,5.92
12655,Y0.8Ba2Cu3O6.44,96.0
12656,Ir0.97Pt0.03Te2,3.07
12657,Ga0.248V0.752,15.1
12658,Lu0.6Tm0.4Ru1B2,4.31
12660,Rh3Y1,1.07
12663,Dy0.9Ce0.1Ba2Cu4O8,44.0
12664,Ho0.4Dy0.6Ni2B2C1,5.855
12665,Sr1Pt2Ge2,10.2
12666,Sb0.06Sn0.94,3.96
12667,Y1Ba2Cu2.97Ni0.03OY,87.0
12668,Ce1Fe1As1F0.2O0.8,40.4
12669,Mg0.95Ti0.05B2,38.5
12670,Zn0.035Zr1N1Br1,14.0
12671,Lu0.7Ca0.3Ba2Cu3O6.15,58.0
12672,La1Nd0.9Ce0.1Cu1O3.974,19.9
12674,Ba1Fe1.85Zn0.04Co0.11As2,18.5
12676,La1Ba1.4Ca0.6Cu3O6.9,74.0
12677,Nd1.85Ce0.15Cu0.987Zn0.013O4,14.5
12678,Cu3.2Mo6S8,8.05
12679,Tl0.76Ba1Cu1O4.5,86.0
12680,Nb2.55V0.45Au1,5.1
12681,Y0.91Th0.09C2,3.7
12682,Nb0.75Al0.19Ge0.06,20.45
12683,La1.862Sr0.138Cu1O4,33.0
12684,Na1Fe0.925Co0.075As1,10.6
12686,Pb1Mo6S7.5Se0.5,10.6
12687,Bi4Sr4Ca3Cu4O16.29,81.0
12688,Li0.9Mo6O17,2.891666667
12692,Tl2Ba2Ca1Cu2O7.946,107.0
12694,V2.793Ni0.207Ga1,11.9
12695,Y1Ba2Cu3O6.955,91.8
12697,Tb1Sr2Cu2.69Mo0.31O7,34.5
12698,Al0.997Er0.003,1.6580000000000001
12699,Ru0.475V0.525,3.12
12701,Y1Sr0.6Ba1.4Cu2.5B0.5O7,47.0
12703,Sn0.95In0.038Te1,1.9
12704,Ti0.75V0.25,5.3
12706,Bi2.14F0.24S2O0.76,3.5
12707,Nb3Rh0.9Pt0.1,2.8
12708,Er1Rh3.6Ir0.4B4,7.95
12711,Pb0.6Cu0.4Sr1La1Cu1O5.15,32.0
12712,B1Re3,4.75
12713,Ir0.287O0.14Ti0.578,5.5
12714,Ca1.883Cu0.941Cl1.941Na0.059O2.117,26.0
12715,Rb0.6Bi1.4O3,11.0
12716,Eu0.95La0.9Ce0.15Cu1O4,17.5
12717,Nb25Ti65Ta10,8.4
12718,Bi0.8Nd0.1Tb0.1Pb1Sr2Ca2Cu3O10,115.25
12719,La1Se1,1.02
12720,Y1Sr2Cu2.7Ti0.3O6.7,26.0
12721,Mg4Al1Si3,5.2
12722,Ca6.85Pr3.15Pt3Fe10As18,20.5
12724,Al1Cr0.3Nb2.7,14.1
12725,Y0.75Ca0.25Ba2Cu3O6.008,34.85
12726,Cu0.07Ir1Te2,2.71
12727,La1Ru2P2,3.933333333
12728,Ca0.8La0.2Fe1As1H1,40.6
12729,Fe2As2Ca6Al1Ti3O11,32.0
12733,Bi2Sr2Gd1.64Ce0.36Cu2O10.24,34.0
12734,Lu4.95Yb0.05Ir4Si10,2.0
12735,Bi2.13F0.17S2O0.83,3.2
12736,Y1Ba2Cu2.88Ga0.12O7,79.89
12737,Y1Ba2Cu3F1.65O5.675,90.3
12739,In0.88Sn0.12,5.03
12740,Mg0.6Ti0.4B2,37.5
12742,Ho1Rh3.6Ir0.4B4,5.09
12743,Y0.9Cs0.1Ba2Cu3O6.47,91.3
12744,C1Ti0.5W0.5,6.7
12746,Fe0.4Ni0.6Zr2,1.78
12747,Tl0.5Ba2Ca1.5Be1.5Cu4.5O9.887,115.0
12753,Bi1Pb1Sr0.2Pr0.2Cu1O6,15.0
12754,C1Mo0.9Ru0.1,13.6
12759,As2Sn3,3.5
12761,La0.6Pr0.4Ba2Cu3O7,54.8
12762,Y1Ba1.5La0.5Cu3O7.17,55.55
12763,In3.3Mo15Se19,4.0
12764,Hg0.4Pr1.1Sr2Ca0.5Cu2O6.9,60.0
12766,Y1Ba2Cu2.74Fe0.26O7,55.6
12768,Ce1Fe1As1H0.4O0.6,40.2
12772,Cu0.75V0.25Sr2Y1.3Ce0.7Cu2O8.77,24.5
12773,Ca1.7Na0.3Cu1Br1Cl1O2,23.5
12775,Hg0.004In0.996,3.3960000000000004
12776,Sm1.35Gd0.5Ce0.15Cu1O3.97,18.8
12777,Y1Ba2Cu2.94Fe0.06O6.89,87.5
12778,Cd0.02In0.98,3.2945
12779,La0.65Pr1.2Sr0.15Cu1O4,31.4
12783,Bi2Ca2.5Eu0.5Cu2O8.31,7.0
12786,As1Bi1Pb1Sb1,9.0
12788,La1Fe1As1F0.05O0.95,23.304000000000002
12789,Ca1.875Na0.125Cu1Br1Cl1O2,15.0
12790,Ba0.76La0.24Fe2As2,5.02
12791,Al0.131Cr0.088V0.781,1.46
12792,Ag0.92Sn1.08Se2,5.57
12794,La1.798Sr0.202Cu1O4,30.5
12796,La1.78Sr0.22Cu1O3.945,34.8
12798,La1.67Sr0.33Cu0.94Co0.06O4,29.0
12799,Nb1Se2.2,6.675
12801,Nb3Sn0.9Ga0.1,18.2
12803,Eu0.0028La0.9972,5.51
12804,Hf0.4Ta0.6,6.85
12807,Hg1Ba2Cu1O4.033,48.0
12808,Nd0.6Sm0.4Bi1S2F0.7O0.3,4.58
12809,Bi2Sr2Ca1Cu2O8.21,90.6
12810,Nb0.85Zr0.15N1,13.7
12812,Be22Mo0.3Re0.7,8.6
12814,Bi1.6Pb0.4Sr2Ca0.8Nd0.2Cu2O8.16,87.0
12815,Nd0.74Gd1.11Ce0.15Cu1O4,12.0
12817,As1Ni0.12Pd0.88,1.39
12818,U2Pt0.95Rh0.05C2,1.41
12819,Y1Re0.05Ba2Cu2.95O7.04,92.0
12820,Gd1Ba1.5Sr0.5Cu3O6.93,85.5
12821,Pd2Yb1Sn1,2.39
12823,Nb0.75Al0.178Ge0.072,20.1
12824,La1.73Sr0.27Cu1O3.913,30.6
12827,Y1Ba2Cu2.85Fe0.15O7.02,76.0
12829,Ca0.3Ba1.45La1.25Cu3O7,28.3
12830,Ta0.2W0.8C1,8.96
12831,Bi1Pb1Sr0.3Pr0.3Cu1O6,14.0
12832,Nb15Ti75Ta10,6.7
12833,Ir2Y3,1.61
12834,La1.88Ba0.12Cu0.99Ga0.01O4,8.2
12835,Nd1Fe0.7Ru0.3As1F0.11O0.89,21.3
12836,Tl1Sr1.65Th0.35Ca1Cu2O7,55.3
12837,Nb0.7275Zr0.0225Al0.25,14.6
12838,Mo0.95Hf0.05C0.68,9.87
12840,Y1Ba2Cu2.9Ni0.1O6.93,72.5
12841,Nb1.01Se2,7.05
12842,La1.73Nd0.12Sr0.15Cu1O4,26.3
12843,Ca1La1Ba1Cu2.97Fe0.03O7,49.0
12844,Eu1Ba2Cu3O6.76,77.0
12845,Y1Ba1Sr1Cu2.8Mo0.2O7.3,68.0
12846,Ba24Si100,1.475
12847,Y1Pt0.5Ge1.5,3.3
12849,Li1Zr1N1Cl1,14.4
12851,Y1Ba1.8Sr0.2Cu3O6.98,89.0
12856,Tl1Sr2Ba2Cu2C2.7N0.3O7,49.0
12857,Ca0.9La0.1Fe1As1H1,28.2
12859,La1Pt4Ge15,4.98
12860,Bi0.3Pb0.3La1.2Sr1.2Cu2O5.81,55.0
12861,Ba1Pb0.7Bi0.3O3,11.23
12862,Nd1F0.5Bi0.84S2O0.5,4.5
12863,Bi2Sr2Ca2Cu4O11,95.0
12864,Cr0.8Os0.2,2.5
12865,Li1Fe0.95Co0.05As1,10.29
12866,Y1Ba2Cu2.988Zn0.012O6.75,62.0
12867,Bi1.95Sr1.65La0.4Cu1O6.347,24.0
12868,Ir3Th1,4.71
12870,Fe1Se0.2Te0.8,12.9
12871,Nd1Bi0.96Pb0.04S2F0.3O0.7,5.35
12872,Mg0.97Cu0.03B2,37.58
12873,Nb3Sn0.1Al0.9,16.1
12877,La1.1Ba1.5Ca0.4Cu3O6.82,72.0
12879,V0.751Sb0.208Al0.041,3.4
12880,H0.94Pd1,6.6
12881,Er1Ni0.199Co0.02B2C1,9.2
12886,Bi1.4Pb0.6Sr2Ca1.2Ga0.8Cu3O7,67.7
12887,Tl1Sr1.5La0.5Ca1Cu2O7,90.0
12888,Ho1Ba2Cu3O6.71,92.9
12890,Sm1.48Gd0.37Ce0.15Cu1O4,10.5
12891,La1Rh3,2.6
12893,Y1Ba1.9La0.1Cu3O6.85,67.0
12897,B0.039C0.961Si1,1.4
12898,Gd0.5Ca0.35Mo0.15Ba2Cu3O6.586,77.7
12899,Sm1Ba1.9Pr0.1Cu3O6.99,56.4
12902,Hg0.5Fe0.5Sr2Y0.4Ca0.6Cu2O6.67,77.5
12903,Y1.4Th0.6C2.9,16.3
12904,Gd0.45Ca0.4Mo0.15Ba2Cu3O6.537,73.0
12905,Eu1.6Sr1.8Ce0.6Cu3O8.6,30.0
12906,Y1Ba1.8La0.2Cu3O6.9,61.4
12907,Ba0.9K0.1Fe2As2,3.5
12908,Ca0.4Ba1.25La1.25Cu3O7.14,78.8
12909,Rb0.76Fe1.62Se2,29.5
12910,Y1Ba2Cu3.976Zn0.024O8,63.0
12911,Sn0.005V0.995,4.57
12912,Sm1Fe1As0.55P0.45H0.16O0.84,11.0
12913,Hg1Ba2Ca1Cu2O6.24,123.0
12914,Y1Cu2.99Zn0.01O7,86.6
12915,Bi1Sn1,4.9
12916,Bi3Sr1,5.7
12917,Er0.72Gd0.28Rh4B4,2.5
12919,Pu1Co0.9Ni0.1Ga5,16.6
12923,Y1Sr2Cu2.65Mo0.35O7.4,43.0
12924,Os2Y1,4.7
12925,Ba1Fe1.77Co0.23As2,16.5
12927,Hf1N1,8.83
12928,Mn0.33Ni0.67U6,1.6
12929,La1Pd2Ge1.92Sn0.08,1.44
12930,Tl1Sr2Ca1Cu2O6.68,75.0
12934,Tl1Sr2Ca0.4Pr0.6Cu2O7,74.0
12936,La0.7Nd0.3Pt2.1B2.4C1.2,7.84
12937,Y0.7Tb0.3Ni2B2C1,5.71
12938,Al6Re1,1.85
12939,Mo1Sr2Ho1Cu2O8,27.0
12940,La2.4S4Y0.6,4.77
12942,Hf0.9Rh0.1,1.9
12943,Tl2Ba2Cu1O5.876,87.0
12944,Y0.5Pr0.5Ba1Sr1Cu3O6.9,36.0
12945,Al1Nb1Sn1,17.45
12946,Y1Ba2Cu2.61Ga0.39O7,64.8
12950,Pr0.65Sr0.35Fe1As0.85Sb0.15O1,21.9
12951,Y0.9Ca0.1Ba1.6La0.4Cu3O7.09,72.0
12952,Mo80P10B10,9.0
12954,Ba0.694K0.306Fe1.826Co0.174As2,18.0
12955,Tm1Ba2Cu3O6.44,28.0
12956,Pb2Sr2Y0.64Ca0.36Cu3O8,65.0
12957,Hg0.95Re0.05Ba2Cu1O4.372,97.0
12958,Lu1Th3.4Ru0.6B4,9.0
12959,Y1Os1Re1,2.0
12960,La1.85Sr0.15Cu1O3.987,12.0
12961,La1.86Ba0.14Cu0.99Ni0.01O4,11.0
12964,La1.9Sr0.1Cu1O4.01,29.0
12965,Ca1.825Na0.175Cu1Br1Cl1O2,23.0
12966,Mo2Ir1B2,3.6
12969,Ca1Fe0.95Rh0.05As1F1,3.81
12970,Yb1Ba1.2Sr0.8Cu4O8,80.0
12971,Sc0.3V0.7,6.76
12972,U1Pd2Al2.94Ga0.06,1.51
12974,Nb3Si0.25Sn0.75,16.4
12976,Y1Ba1.8La0.2Cu3O7.013,80.5
12979,Lu4.975Sc0.025Ir4Si10,4.0
12980,Y1Ba2Cu3Li0.5O7,83.79
12982,Sr1.9Ca0.1V1Fe1As1O3,25.8
12984,La0.9795Sm0.0205,1.27
12985,Nd1Ba2Cu3S1O6,69.0
12986,Mo0.5Re0.5,7.6
12988,Cu0.5P0.5Sr2Ca1.9Y0.1Cu3O9.3,84.0
12990,Ru0.98Ir0.02Sr2Gd1Cu2O8,38.0
12994,La1.5Gd0.5Ba2Ca1Cu5O11.892,79.0
12995,La1.6Pr0.4Ca0.8Ba2Cu4.8O11.1064,54.0
12996,La1.8Pr0.2Ca0.4Ba2Cu4.4O10.7348,35.4
12997,Y1Ba2Cu4O7.9,78.3
12999,Y1Ni1.24Pd0.76B2C1,10.4
13004,Mo0.12U0.88,1.85
13005,Gd0.55Ca0.3Mo0.15Ba2Cu3O6.626,80.7
13006,Ge0.23Mo0.77,2.16
13007,Bi8Sr6Ca6Cu9O33.964,80.0
13010,Mo1.965Zr0.035B1C1,6.9
13011,K1Tl1.5C8,2.45
13012,Eu1Ba2Cu3O7.01,90.0
13013,Cr0.2Fe0.8U6,3.3
13014,Zr3V3O1,7.5
13016,Sn0.9405Ge0.0095In0.05Te1,1.61
13018,K0.08Zr1N1Cl1,13.0
13020,La2Rh3Si5,4.4
13021,Y0.38Ba1.74La0.88Cu3O6.95,25.0
13023,Zn1N1Ni3,3.0
13026,Y0.9Ca0.1Ba2Cu3O6.93,83.3
13027,Mo0.35Re0.65,5.6
13029,N0.003Nb0.997,9.12
13030,Ca1.8Na0.2Cu1Cl2O2,26.95
13031,Mg0.8Zn0.2B2,38.4
13032,Sc0.9Y0.1Ni2B2C1,15.1
13033,Ce0.2Nd0.8Bi1S2F0.5O0.5,4.48
13034,Na2Rb0.75Cs0.25C60,5.2
13035,Rb0.796Fe1.596Se2,32.4
13037,Ba2Ca2Cu3F1.2O6.8,120.0
13040,Bi2Sr1.9Ca1.1Cu2O8.181,71.8
13041,Hg1Ba2Cu1O4.025,20.0
13042,Pd0.14Ti0.86,3.74
13044,Fe1.14Te0.91S0.09,8.5
13045,La1.79Sr0.21Cu0.98Ru0.02O4,11.2
13046,Cu0.1Ti1Se2,3.2
13047,V2Hf0.95Y0.05,9.22
13049,Nb3As0.05Sn0.95,18.19
13050,Ga6Y1,2.0
13051,Nb1S1.06,3.3
13052,Sr1Ca13Cu24O41,11.8
13054,Cd1Sn1,3.65
13058,Nb0.15Zr0.85,6.35
13059,Hg1Tl1Ba2Ca2Cu3O10,76.0
13060,Bi1.6Pb0.4Sr2Cu2.75Mo0.25OY,96.9
13061,Nd1Fe0.98Mn0.02As1F0.11O0.89,27.1
13062,Ca0.79La0.21Fe1As2,26.5
13064,Cu0.5C0.5Ba2Ca2Cu3O9,67.0
13065,Na0.6Sn1Ta2S5,4.0
13066,Lu0.05Dy0.95Ni2B2C1,5.325
13067,Y0.925Ca0.075Ba2Cu3O6.93,86.3
13068,Ir0.02Re0.98,1.9680000000000002
13070,Bi2Sr2.1Y0.1Ca0.8Cu2O8.26,96.0
13071,Y1Sr2Cu2.85Re0.15O6.95,43.1
13073,Bi4Sr3Ca2.8Tm0.2Cu4O16.41,83.0
13074,Ca0.4La1.25Ba1.35Cu3O7.055,57.0
13075,Ce0.5Nd0.5F0.5Bi1S2O0.5,3.46
13076,Na0.29Hf1N1Cl1,19.0
13077,Y1Ba2Cu2.97Zn0.03O6.59,38.7
13078,Bi1.4Pb0.6Sr2Ca1.7Ga0.3Cu3O7,67.4
13081,Y0.85Ba1.95Ca0.2Cu4O8,91.6
13082,Er0.16Ho0.84Rh4B4,5.95
13083,Tl1Sr2Ca1Cu2O6.61,52.0
13084,Y1Ba0.74Sr1.26Cu3O6.98,80.5
13085,Hf0.8Ta0.2V2,9.54
13086,V3Ga0.957Ge0.043,13.1
13087,Pr0.8Ce0.2Pt4Ge12,1.767
13089,Na0.38Co1H2.6O3.3,2.8
13090,Bi3.875Co0.125S3O4,4.255
13091,Er1Ba2Cu3O6.15,35.0
13092,Ce1Bi1S2F0.7O0.3,3.366666667
13093,Bi1.4Pb0.6Sr1.6La0.4Cu1O6.068,28.0
13095,La1.836Sr0.164Cu0.99Ga0.01O4,26.9
13096,La1Fe0.95Ir0.05As1O1,7.18
13098,Y0.925Ca0.075Ba2Cu3O6.68,75.1
13100,Ti0.5Zr0.5,1.6125
13101,Ba8Ga16Ge30,7.5
13102,La1.75Sr0.25Cu0.97Ru0.03O4,15.3
13103,V2.781Co0.219Ga1,8.4
13104,Nb41.25Ta13.75Rh45,4.615
13105,Mo6Se7.9Te0.1,6.3
13106,B5Nb1.9Sc0.1,6.6
13108,Sr1Al1Si1,4.75
13109,Gd0.922Pr0.078Ba2Cu3O7,84.0
13111,Sm1.05Gd0.8Ce0.15Cu1O3.97,15.0
13112,Sn0.63Ge0.21In0.16Te1,1.87
13114,La1.801Ba0.199Cu1O4,23.5
13115,Sr2Y1Cu3O7.9,69.0
13116,Ba1.6Sr0.4Yb0.6Ca0.4Cu3O6.14,46.5
13117,V50Ti45Zr5,7.0
13118,Ba8Ge46,10.0
13119,K0.86Fe1.66Se2,32.0
13125,La1.75Ca0.15Nd0.1Cu1O4,30.5
13126,Ir0.69Y0.31,1.98
13127,Sm1La0.8Sr0.2Cu1O3.95,28.8
13129,Ge0.5Cu0.5Sr2Ca1.9Y0.1Cu3O9.3,81.5
13130,Sr1Pt3P1,8.375
13131,Fe0.98Se0.15Te0.9,8.8
13134,Nd0.9Ba1.7Sr0.4Cu3O6.666,82.0
13136,Y0.9Ca0.1Ba2Cu3O6.96,81.5
13137,La0.9481Ce0.0519Sn3,1.92
13138,Ir0.44Rh0.5Se2,9.24
13140,Gd1Ba2Cu3O6.89,92.9
13141,Eu0.012La0.988,2.15
13144,Nb0.803Ta0.197,7.85
13145,Nd1.86Ce0.14Cu1O3.96,21.3
13147,Ba0.5K0.5Fe1.9Co0.1As2,30.31
13148,Eu0.01La0.99,3.79
13149,Sn0.3997Pb0.4003In0.2Te1,4.23
13151,Hf0.8Rh0.2,1.95
13152,Y1Ba2Cu2.94Ni0.06O6.78,64.6
13153,Mo6Se5Br3,7.1
13154,La2Tl2Sr2Cu3O11,37.0
13155,Sr11Ca12Cu24O41,5.0
13156,Y1La0.2Ba1.8Cu3O7.74,89.1
13157,Nb2.64Ta0.36Al1,14.5
13158,Gd0.004La0.996,3.59
13160,Y1Ba1.92La0.08Cu3O6.965,92.6
13162,Lu5Ir3.44Rh0.56Si10,5.72
13163,Gd0.6Pr0.4Ba2Cu3O6.95,11.2
13164,Ir1Ti3,5.185
13165,Ce1Bi3.6Pb0.4Te6,3.0
13166,La1.7Nd0.15Ca0.056Ba0.094Cu1O4,16.0
13167,Nd2Cu1FO4,22.0
13168,Sm1Fe0.94Ir0.06As1O1,18.0
13169,Y1Ba2Cu3.98Ga0.02O8,77.75
13170,Fe2As2Ba4Sc3O7.5,11.0
13171,Sr1.5Ba0.5Y1Cu2.8Ge0.2O7,25.0
13172,Nb0.2Ta0.8C1,9.0
13174,Ti0.8V0.2,4.125
13176,Ti1Ir1Si1,1.675
13178,Gd0.7Pr0.3Ba2Cu3O7,39.6
13179,Ba0.5Na0.5Fe2As2,32.8
13180,Li1Fe0.99Ni0.01As1,13.35
13183,Ir2Y1,1.635
13185,Fe1Te0.75S0.25,7.28
13186,Ba0.72K0.28Fe2As2,33.45
13189,Cs1Os2O6,3.27
13190,Nb0.85Mo0.15C1,12.7
13193,Ca0.7La0.3Fe1As1H1,35.7
13194,La1.8Nd0.2Cu1O4.04,26.3
13195,La1.85Sr0.15Cu0.995Zn0.005O4,32.3
13196,B2.2Nb1,6.305
13197,La1.85Sr0.15Cu0.99Ru0.01O4,20.5
13199,Zr0.61Rh0.285O0.105,11.8
13200,Yb0.6Pr0.4Ba1.7Sr0.3Cu3O6.93,46.0
13201,Sm0.75Gd1.1Ce0.15Cu1O3.97,9.6
13203,La1.87Ba0.13Cu1O4,4.96
13204,Y0.8Pr0.2Ba2Cu3O6.8,56.1
13205,Nd1.85Ce0.15Cu0.985Zn0.015O4,14.0
13206,Pr0.83La1Ce0.17Cu1O4,19.8
13210,La0.5Y0.5Fe1As1F0.1O0.9,31.4
13211,Eu0.64K0.36Fe2As2,27.6
13212,Y0.8Zn0.2Ba2Cu3O7,43.0
13213,Y0.9Pr0.1Ba2Cu3O6.65,56.1
13214,La1.782Ba0.218Cu1O4,21.6
13215,La1Pt1Si3,1.52
13217,Nd1.85Ce0.15Cu1O4,21.2325
13218,Gd0.9Ca0.1Ba1Sr1Cu3O6.8754,43.0
13219,La0.85Ca0.15Ba1.5Sr0.5Cu3O6.819,71.0
13220,Hg0.75Ba2.07Ca2.07Cu3.11O8.223,133.4
13221,Nd1.2Ba1.8Cu3O6.91,47.6
13222,Sc1Pd2Sn1,2.145
13223,Pb0.9Sn0.1,7.17
13225,Y0.95Ce0.05B6,1.6
13228,Cs0.3W1O3,2.0
13229,C1.35Si0.1Y0.9,11.3
13232,Ca0.4Pr0.6Fe1As1F1,50.0
13234,Bi2Sr2Ca0.8Y0.2Cu2O8.26,92.0
13236,La1Fe1As0.8P0.2F0.05O0.95,25.61
13237,Mn0.1Fe0.9Se0.85,11.0
13238,Pb7Bi3,9.05
13239,Y0.74Gd0.26Ni2B2C1,5.935
13240,Sm1.2Ba1.8Cu3O7.01,56.5
13242,Y2Fe3Si5,1.595
13243,Rh43Zr57,2.18
13245,Y2Pd0.7Pt0.3Ge3,2.52
13246,La0.992Tb0.008Al2,1.61
13247,Sn0.4197Pb0.4203In0.16Te1,4.18
13248,Cs1Os1O6,3.3
13252,Mo0.28Re0.72,6.5
13257,C0.6Mo4.8Si3,7.6
13258,Y1Ba1.98La0.02Cu4O8,74.3
13259,Bi2Sr2Ca0.8Pr0.2Cu2O8.282,70.0
13260,Tl1Sr0.4Ca0.6La1Cu1O5,26.0
13262,Sc0.5Y0.5Ir3.6Rh0.4B4,3.01
13263,Pd0.2Ti0.8,4.71
13265,Bi14Rh3,2.85
13266,La1Fe1As1H0.58O0.58,32.0
13267,La1.83Sr0.17Cu0.97Ni0.03O4,14.8
13268,Bi0.7Sb0.3,4.14
13269,Nb0.6Pd0.4,2.035
13272,Li1Fe1As1,16.475
13274,Er0.91Gd0.09Rh4B4,6.87
13276,Y1Ba2Cu2.8Co0.2O6.83,53.0
13277,Mg0.99Al0.01B2,37.95
13278,K0.7Sr0.3Fe2As2,12.2
13280,Bi3.9Co0.1S3O4,5.215
13281,Y1Ba2Cu3.94Zn0.06O8,39.6
13282,Bi1Rh1,2.04
13283,Ba1Ni2Ge0.4P1.6,2.84
13285,La2.9Ce0.1Ni2B2N2.7,4.9