,composition,Tc
1080,Tl1Sr1.5Ho0.5Ca1Cu2O7,80.0
1081,Hg1Ba2Cu1O4.047,95.0
1082,Nd1.85Ce0.15Cu1O4.034,18.1
1084,Bi0.3Pb0.2La1.5Sr1Cu2O5.94,24.0
1085,La1.85Sr0.15Cu1O4.05,39.0
1087,Ti0.42V0.58,7.52
1090,C0.72W0.28Si1,3.9
1092,Ru0.6Sn0.4Sr2Eu1Cu2O8,24.2
1094,Y1Ba1.8La0.2Cu3O6.7,44.3
1097,Pb0.5Cd0.5Sr1.5Ba0.5Ca0.5Y0.5Cu2O7,49.0
1098,K0.75Ca0.25Bi1O3,8.7
1099,Bi1.4Pb0.6Sr2Ca1.4Ga0.6Cu3O7,70.6
1100,Y0.76Ca0.24Ba2Cu2.94Co0.06O6.81,82.0
1101,Th1.8Ho0.2C3,5.4
1103,Hg0.85Re0.15Ba2Cu1O4.525,96.3
1107,Sn0.8In0.2Te0.8Se0.2,3.8
1108,Hg0.8Ge0.2Ba2Ca1Cu2O6.2,124.0
1109,Zr1Ru0.8Fe0.2P1,2.6
1113,Bi1.7Pb0.3Sr2Ca1Cu2O8,80.5
1114,Ta0.9V0.1,3.58
1116,Nb5Pt3,3.73
1117,Nb0.8Ga0.195Cr0.005,14.9
1119,Cu0.55Zn0.45Ir2S4,2.41
1121,Nb2.778Ti0.222Al1,13.0
1122,Bi2Sr1.8Ca1.2Cu2O8.211,73.7
1123,Sr0.95Y0.05Cu1O2,38.6
1125,C1.35Ca0.1Y0.9,10.5
1127,Er1.2Mo6S8,1.4333333330000002
1128,Bi3S3O3,5.1
1129,Bi1.8Pb0.2Sr1.9La0.1Cu1OY,20.2
1132,La1.35Ba1.5Ca0.15Cu3O6.67,43.0
1133,Y1Ba2Cu2.9Zn0.1O6.85,50.08
1136,Hg1Ba2Cu1O4.17,78.0
1137,Bi2Sr2Ca2Cu3O10.28,108.7
1138,Nd0.95Pr0.05Ba2Cu3O6.85,57.2
1139,Y2Cu2I2,10.1
1142,La2.5Y0.5Ca1Ba3Cu7Fe7O16.574,80.0
1143,V3Si0.46Ga0.54,7.4
1144,La2.8Ba3.2Cu6O14.07,13.0
1146,Yb0.8Pr0.2Ba1.7Sr0.3Cu3O6.92,76.0
1150,V0.746Sb0.179Al0.075,4.3
1151,Eu1.80375Gd0.04625Ce0.15Cu1O4,5.7
1152,Bi0.45Pb0.55,7.7
1154,La3Ni2B2N2.7,12.5
1156,Mg1Co1Ni3,7.63
1157,C0.64Mo1,8.45
1158,Eu1.3Ce0.7Sr2Ru1Cu2O10,33.0
1159,Pb0.5Sr2Ca0.5Er0.5Cu2.5O7,70.0
1160,Y2La1Ba3Cu6O14.17,28.0
1162,Na2Rb1C60,1.966666667
1163,Cr1Ru3,3.3
1164,Sc4Ir6Ge19,1.4
1166,Tl1Ba2Ca0.6Y0.4Cu2O7,95.8
1167,Yb0.6Pr0.4Ba2Cu3O6.91,50.5
1168,La2.9451Gd0.0549In1,2.71
1172,Y1Ba2Cu2.9Co0.1O6.89,55.3
1173,Sm1Fe0.9Rh0.1As1O1,9.6
1175,Y1Ba1Sr1Cu2.9Sn0.1O7,69.1
1177,In1Te1,2.206
1178,Mo0.9Ti0.1C1,13.1
1179,Mg0.95Li0.025Al0.025B2,38.2
1180,Pd50.745Sc0.255Sb49,1.56
1181,Ru28Zr72,3.76
1182,Nb0.85W0.15,5.32
1183,La1.84Sr0.16Cu0.975Ni0.025O4,15.0
1185,La1.8Pr0.2Cu1O4.0631,20.2
1188,Y0.8Pr0.2Ba2Cu3.95Fe0.05O8,33.0
1190,Sr0.15La1.85Cu1O4,34.7
1191,Al1Sr2Ca2Cu3O9.7,72.0
1192,V0.5Nb2.5Sn1,14.2
1194,Ba0.47K0.53Bi0.965Pr0.035O3,2.97
1195,Th7Fe2.43Ni0.57,1.05
1197,Zr0.935Lu0.065B12,4.77
1198,Fe3Th7,2.016666667
1200,Ca0.4Ba1.25La1.35Cu3O7.04,21.3
1201,Rh0.02Zr0.98,2.4
1204,La1Tl0.75Sn2.25,1.19
1206,Y0.7Th0.3Ni1C2,7.445
1208,Na0.33Co1H2.6O3.3,2.2
1209,Ba1Fe1.988Mo0.012As2,16.3
1210,Au0.22Te0.78,1.54
1212,La0.5Sm0.5Bi1S2F0.5O0.5,4.05
1213,Ho1Th3.4Ru0.6B4,6.3
1214,Ba1Ag0.5Si1.5,1.21
1218,Tl1Sr2Ca0.4Y0.6Cu2O6.93,92.0
1219,Ba0.65Na0.35Fe2As2,31.25
1220,Th1Ir2Si2,2.215
1221,Dy1Ba1Sr1Cu3O6.89,79.5
1223,Al20.3V2,1.49
1224,Ir0.98Pt0.02Te2,1.4275
1227,C60Ca5,8.4
1231,Nb0.98Ta0.02,9.02
1232,Na0.3Ba6.2Si46,4.0
1233,La1.25Ca0.15Nd0.6Cu1O4,25.0
1234,V0.741Sb0.113Al0.146,6.1
1235,La2Cu1O4.095,37.8
1238,Ta2Zr1,2.3
1239,Ca8.77Pr1.23Pt3Fe10As18,26.9
1240,Tl2Ba2Cu1O6.05,47.0
1241,Ba0.83K0.17Fe2As2,8.0
1242,Er0.75Ca0.1Hf0.15Ba2Cu3O6.796,73.6
1243,Fe1Te0.88S0.12,6.8
1248,Y1Ba2Cu2.94Fe0.06H1O7,30.0
1249,C0.04Re0.96,1.98
1251,B1Mo1.75Ta0.25,3.05
1253,La1.805Sr0.195Cu0.98Ru0.02O4,14.1
1254,Y0.9Ca0.1Ba2Cu2.9Al0.1O6.88,91.1
1256,La1.85Sr0.15Cu0.992Al0.008O4,27.1
1258,Nb3Ge0.5Ga0.5,7.3
1260,Pd0.2Ho1Te3,2.0
1262,V0.747Ga0.131Al0.122,11.7
1263,Nb48.15Zr42.5Ta9.35,10.4
1264,Pb0.85Tl0.15,6.73
1265,Pr0.88La1Ce0.12Cu1O3.934,24.0
1266,Ho1Ir2Rh2B4,6.41
1267,Hg0.333In0.667,4.115
1268,Al0.005V0.995,4.82
1270,V3Ga0.4Si0.6,8.7
1271,Y1Ba1.75Cu2.75Co0.25O7.06,63.0
1272,Y0.6Pr0.4Ba2Cu4O8,55.25
1273,Y1Ba2Cu3H0.52O6.91,91.7
1274,Hg1Ba2Cu0.97Zn0.03O4.043,53.0
1275,Ba1Pb0.65Bi0.35O3,3.93
1277,Rh0.53Se0.47,6.0
1278,Bi0.3Pb0.7,8.63
1279,Y1Ba2Cu3H0.64O6.54,42.05
1280,La1.55Er0.45Ba2Ca0.9Cu4.9O11.664,76.0
1281,Tl0.5Ba2Ca1Be2Cu4.5O9.948,110.0
1284,Cu1Cr1O2,132.0
1287,La2.5Gd0.5Ca1Ba3Cu7O16.359,80.0
1288,Sr0.8Fe2Se2,38.0
1290,Y1Ni1.98Mn0.02B2C1,15.48
1293,Sr0.2W1S2,3.5
1295,C1Ca3Cu2O7.1,47.0
1296,Cu0.7Ti1Se2,3.9
1298,Nb1S0.899,3.83
1299,Y1Ba2Cu3.7Zn0.3O8,22.5
1301,Sn0.8In0.2Te0.85Se0.15,3.9
1303,Y0.7Pr0.3Ba2Cu3O6.65,46.0
1304,Sr0.85La0.15Cu1O2,31.9
1305,Ge2Mo1,3.055
1306,Y1Ba2Cu3H0.91O6.91,91.4
1307,Ce1Te1.82,2.7
1308,W1.75Ru1.25B2,3.38
1311,Nd1.85Th0.15Cu1O3.98,17.0
1314,Y1Ba2Cu2.85Ni0.15O6.9,73.0
1316,Ba1Fe1.78Ni0.22As2,3.4
1317,Sm1Ba2Cu3O6.944,94.0
1318,Bi1.8Pb0.2Sr1.55La0.45Cu1OY,28.3
1320,C1Ir2W3,2.1
1321,Y0.2Lu0.8Ir4B4,3.04
1323,Eu1Ba2Cu3O7.1,94.9
1324,C1.3La1,8.3
1325,Nb0.9Rh1.1,3.07
1327,Er1Ba2Cu2.67Zn0.24Fe0.09O6.94,32.0
1328,La1.665Pr0.185Sr0.15Cu1O4,35.0
1329,Ba0.2K0.8Fe2As2,12.8
1332,La1.83Sr0.17Cu0.99Ru0.01O4,30.55
1334,U1Pd2Al3,1.864
1336,Ir0.58Rh0.37Te2,3.76
1337,Ba1.34Eu2Ce0.66Cu3O9.02,25.0
1338,Cu1Co1.95Cr0.05S4,3.4
1339,Hg1Ba2Ca1Cu2O6.08,92.0
1340,Lu0.6Pr0.4Ba1.7Sr0.3Cu3O6.91,47.0
1342,Y0.7Ca0.1Pr0.2Ba2Cu3O6.95,77.1
1343,Ce0.94La0.06Ru2,6.55
1345,Hg0.5Pb0.5Ba2Ca2Cu3O8.45,103.0
1346,Y1Os2Si2,1.1
1347,Ba1.7K0.3Pb0.95Bi0.05O4,11.0
1348,Li2Ir1Si3,3.75
1351,Y1Ba2Cu2.97Zn0.03O6.93,81.0
1352,Nb0.8Zr0.2,10.9
1354,Li2Pt3B0.99Al0.01,2.86
1359,Co1Si2,1.306666667
1360,V3Si0.68Ga0.32,9.4
1361,Gd1Ba1.7Pr0.3Cu3O7.06,22.9
1362,Hg0.85Re0.15Ba1.44Sr0.56Ca2Cu3O8,128.7
1363,U0.85Mo0.15,2.105
1365,Ba4C60,6.75
1367,Y1Ba2Cu4O8.043,80.0
1368,Ga0.8Ge0.2V3,13.6
1369,La1.825Sr0.175Cu0.985Ni0.015O4,25.0
1370,Tl1Sr1.5Tm0.5Ca1Cu2O7,84.0
1373,Gd1Ba2Cu3H0.43O6.89,82.0
1374,Y1Ba2Cu2.96Co0.04O7,91.5
1375,Mo1B0.03C0.82,11.8
1376,Y2Tl2Sr2Cu3O11,45.0
1377,Y0.7Ca0.3Ba1.7La0.3Cu3O6.92,82.0
1380,Ba1Ti2Sb0.8Bi1.2O1,4.02
1381,Mg1C0.965Ni3,6.3
1382,B1Ta1,4.0
1383,Nb50Zr40Hf10,10.1
1384,Y0.9Ca0.1Ba2Cu3O6.98,81.8
1386,Ag7F2H1O8,1.5
1387,Ba1Fe1.782Co0.218As2,14.1
1388,Cd1C1Ni3,3.133333333
1389,Y1Ba2.01Cu2.7Co0.3O6.8,36.0
1390,Au1Te2,1.3666666669999998
1391,La0.7Sm0.3Bi1S2F0.5O0.5,3.11
1392,Y1Ni1.46Pd0.54B2C1,10.1
1393,C0.8N0.2Sr2Cu1O5.45,31.0
1394,Tl2Ba2Ca2Cu3O9.841,110.0
1395,B3Nb1,9.96
1396,La1Fe1As1F0.075O0.925,21.6
1397,V2Hf0.9Nb0.1,9.93
1398,La1.85Sr0.15Cu0.996Co0.004O4,30.0
1399,Y1Ba2Cu2.7Zn0.3O6.74,45.0
1400,Gd1Ba2Cu4O8,72.66666667
1401,Ba1Pb0.8Bi0.2O3,9.875
1402,Be22Mo0.6Re0.4,8.3
1403,Sm0.9U0.1Fe1As1O1,47.0
1404,V0.745Ga0.228Al0.027,13.05
1408,Pd2Y0.95Gd0.05Sn1,2.41
1409,Nb3Rh0.98Au0.02,2.53
1411,Y1Ba1.9La0.1Cu3O6.96,93.5
1412,Ba0.85K0.15Ti2Sb2O1,5.86
1413,Ru0.925Rh0.075Sr2Gd1Cu2O8,29.8
1414,Tl1Mo6Se7.5,12.2
1415,Y1Ba2Cu2.94Ga0.06O7,87.99
1416,Y0.8Ca0.2Ba2Cu2.8Al0.2O6.88,89.1
1417,Y0.9Ca0.1Ba1.9La0.1Cu3O6.96,82.0
1418,Pr1.5725Y0.2775Ce0.15Cu1O4,11.0
1421,Th3Rh4Sn13,1.9
1422,Li1.08Ti1.92O4,11.8
1423,C1.95Y1,3.86
1424,Nb3Sn0.5Ga0.5,16.4
1425,Tl1Sr2Ca1Cu2O6.58,43.0
1426,Tl2Ba2Ca1Cu2O7,108.0
1427,Pb0.928Sn0.232Ti2Se5.16,4.53
1429,Ce1Fe1As0.6P0.4F0.05O0.95,16.0
1430,Nb1Ta2Sn1,10.8
1431,In0.92Sn0.08,4.25
1432,Au16.7Pd16.6Te66.7,4.6
1433,Eu1Ba2Cu2.8Co0.2O6.98,55.3
1436,La1Ir1Si1,2.3
1437,Tm1Ba2Cu3O6.87,83.6
1438,U0.9Np0.1Co1Ga5,7.2
1439,Y0.6Th1.4C2.7,14.4
1440,Nd0.85La1Ce0.15Cu1O4,15.0
1443,Gd1Ba1.8Pr0.2Cu3O7.01,44.5
1445,Cd0.1In0.9La3,9.55
1446,Sn0.901In0.099Te1,1.746
1448,Nb1N1.08O0.27,12.8
1449,Th0.2Zr0.8,3.3
1450,Ce1Co1In4.9835Cd0.0165,2.15
1451,C0.8N0.2Sr2Cu1O5.35,31.0
1453,S1Se1Ta1,3.7
1455,Nb25Ti65Zr10,7.7
1456,Y1Ni1.7Mn0.3B2C1,5.7
1458,Re0.52W0.48,5.2
1459,Co0.44Mo0.56,13.0
1460,Er1Ba2Cu2.73Zn0.24Fe0.03O6.92,43.0
1461,Ge0.045Nb0.955,4.15
1463,Mo5P1B2,8.7
1464,Li2Pd2.55Ni0.45B1,6.58
1466,Be22Re0.95Os0.05,9.2
1467,La1Ru2.94Co0.06Si2,6.62
1468,Tl1Sr2Ca0.3Y0.7Cu2O6.97,92.0
1469,Pb1Sr2Y0.62Ca0.38Cu3O8,71.0
1470,Zr1Ru1P0.8B0.2,5.4
1471,C0.6Mo4.8Si0.3,7.6
1472,Y1Ba2Cu3O6.516,58.2
1473,Tb1Sr2Cu2.7Mo0.3O7.15,37.0
1475,Y1Ba2Cu3Li0.3O7,86.0
1477,La1Fe0.9Ru0.1As1F0.11O0.89,23.65
1478,Y0.6Pr0.4Ba2Cu3O6.97,40.0
1479,Si0.3V0.7,16.95
1481,Nb3Sb0.1Sn0.9,17.04
1483,Rh0.03Zr0.97,5.626666667
1484,C1Ta2,1.63
1487,Ca1K1Fe4As4,33.1
1488,Cr2Ru1,2.02
1489,Pb1Nb1S3,2.46
1491,Co0.032Ti0.968,2.84
1492,Y0.9Pr0.1Ba2Cu3O6.97,88.1
1494,Nb0.99Cr0.01N1,1.2
1496,Fe0.97Zn0.03Se0.3Te0.7,11.8
1497,C0.55Sr2.03Ca0.62Y0.35Cu2.35O6.79,60.0
1498,Li0.05Zr1N1Cl1,15.0
1500,Pb0.9Sb0.1,6.28
1501,Y1Ru4P12,8.5
1503,La1.77Sr0.23Cu0.96Mn0.04O4,37.0
1504,Mg0.86Al0.14B2,35.1
1505,La0.933Gd0.067Sn3,4.64
1506,La2.9889Gd0.0111In1,7.92
1507,Sr1.7K0.3Cu1C1O5,16.0
1508,Lu0.75Pr0.25Ba1.7Sr0.3Cu3O6.9,66.0
1510,Ce1Bi1S2F0.9O0.34,3.51
1511,Y1Os4P12,3.0
1513,Ba1Fe1.886Rh0.114As2,24.9
1514,Na1Fe0.981Co0.019As1,19.3
1516,Ca0.875Pr0.125Fe2As2,49.0
1517,Mo0.25Ru0.75,2.6
1518,Hg1Sm0.5In0.5Pb2,6.9
1519,Y1Ba2Cu2.97Zn0.03O6.85,77.0
1520,Mg0.988Fe0.012B2,33.45
1521,Nd1Bi0.94Pb0.06S2F0.3O0.7,5.56
1522,Bi2Sr2Ca0.8Ce0.2Cu2O8,17.0
1523,Bi1.95Sr1.65La0.4Cu1F0.6O5.6,25.1
1525,Rh24Zr76,3.67
1528,Pr0.88La1Ce0.12Cu1O3.908,27.0
1529,Th1Pt2Ge2,1.1
1530,Ca0.2Ba1.55La1.25Cu3O7.159,68.7
1531,Bi2Sr1.7Ca1.3Cu2O8.211,78.7
1533,In0.017Sn0.983,3.625
1534,Ca1Fe0.8Ni0.2As1F1,3.92
1535,As3La4,6.5
1537,Li2.6Ti2.7O4,10.9
1538,V50Ti45Ta5,4.55
1539,Na0.22Co1H1.8O2.85,4.45
1540,V2Ta1Sn1,2.8
1542,Ba0.13O3W1,1.9
1543,La1.3Ba1.5Sr0.2Cu3O6.901,43.8
1544,Ho0.8La0.2Ni2B2C1,1.3
1546,La1.906Ba0.094Cu1O4,32.0
1547,Gd0.99Ca0.01Ba1Sr1Cu3O6.9198,70.5
1550,Y1Ba1Sr1Cu2.85Sn0.15O7.06,63.8
1551,Y1Mo6S7,2.66
1552,Er1Os1.1Sn2.7,1.3
1553,Ca4Al2Fe2P2O5.8,17.0
1554,Tl1Sr2Ca0.2Pr0.8Cu2O7,38.0
1556,Ga25Mn14V61,4.22
1560,Tl1Sr2Ca1Cu2O6.52,23.0
1561,Cr0.071Nb0.929,6.95
1563,Y1Sr2Cu2.7Co0.3O6.5,13.0
1565,Cu0.5C0.5Sr2Ca1Cu5O10.8,41.0
1566,Ba1Ti2Sb1.4Sn0.6O1,2.49
1567,Sr0.9Gd0.1Cu1O2,43.5
1568,Ba0.6K0.4Bi0.979Pr0.021O3,23.5
1571,Ca1Fe1.92Co0.08As2,20.4
1572,V0.5Sr2.4Ca3.6Cu5.5O13.55,75.0
1574,La1Pt0.5Ni0.5Si1,2.285
1575,Ba0.6K0.4Bi0.8Pb0.2O3,14.7
1576,Y1Pt2Si2,1.57
1577,K0.8Fe1.76Se2,31.15
1578,Ba0.88K0.12Fe2As2,10.0
1580,Nb0.29Re0.71,5.61
1581,Bi2Sr2Ca2Cu2I0.86O8.21,50.6
1582,Cu0.7Zn0.3Ir2S4,2.95
1583,Sm1Ba2Cu3O6.709,59.8
1586,Ta1Se1.5Te0.5,1.2
1588,Au0.427Ga0.573,1.3780000000000001
1589,Mg0.88Ir0.12B2,18.0
1590,Nb3Sn0.4Ga0.6,14.6
1594,Tl1Mo3Te3,5.84
1595,La1.25Ba1.5Ca0.25Cu3O6.74,70.0
1597,Bi1.6Sr0.4Yb0.75Ca0.25Cu3O6.072,27.0
1599,V0.55Ge0.1Al0.35,5.4
1600,Pd50.745Ti0.255Sb49,1.61
1602,Bi0.1Pb0.4La1.4Sr1.1Cu2O5.84,25.0
1603,La1.82Sr0.18Cu1O3.987,33.0
1604,Rh0.88Ti0.12,4.0
1605,Pd1Tl1Pb1,1.78
1606,Cu1Co1.99Cr0.01S4,3.62
1607,H0.1Nb0.9,7.38
1608,K2Rb1C60,22.4
1611,Th0.9La0.3Ru2,4.45
1612,C6Sr1,1.65
1613,Mo0.22U0.78,2.06
1614,Ba0.6K0.4O3,30.7
1616,Y1Ba1.8La0.2Cu3O6.85,51.4
1617,Si0.05V0.95,2.95
1619,Nb0.75Rh1.25,2.7
1620,Nb0.8Ga0.14Ni0.06,8.7
1621,La1.85Ca0.082Ba0.068Cu1O4,20.0
1622,Au0.328Ga0.672,1.6680000000000001
1623,Zr1Os1Si1,1.72
1624,Cr0.0033V0.9967,5.07
1626,Ba1Ge3,4.0
1627,Ca10Pt3.41Fe9.59As18,7.38
1628,La0.99Pr0.01,5.265
1629,Cd0.0263Pb0.9737,7.124
1631,Ga0.2V0.8,12.5
1632,La1.9Ba0.1Cu0.99Ni0.01O4,17.0
1633,Yb0.7Ca0.3Ba1.6Sr0.4Cu3O6.43,65.3
1635,Ca1Fe0.83Co0.17As1H1,19.0
1636,Mo0.1215Ti0.8785,3.5
1637,Tl1.7Ba2Ca2.3Cu3O9.82,116.0
1640,La1.875Ba0.005Sr0.12Cu1O4,31.1
1642,Cd1Mo6S8,1.8
1643,Pr1.11Gd0.74Ce0.15Cu1O4,12.5
1645,Sb0.25Ti0.75,6.26
1647,Y0.14Tm0.85Ba2Cu3O7,91.0
1648,Y1Ba1.5La0.5Cu3O7.19,38.3
1649,Ba1Pd0.2Si1.8,2.91
1650,Li0.9Mg0.1,11.0
1651,La1.73Sr0.27Cu0.94Ti0.06O4,30.0
1652,Y4Os4Si13,9.8
1653,Na0.75Zr1N1Cl1,14.3
1654,Mo0.1U0.9,1.85
1655,Hg1Sn6,5.1
1656,C14H10Sr1.5,5.6
1657,Ce1Rh0.6Co0.4In5,1.5
1658,Mo0.91Ti0.09,2.95
1659,Ru0.42V0.58,2.12
1660,Bi2Sr2Ca0.8Gd0.2Cu2O8.26,89.8
1661,Ca0.1Ba1.65La1.25Cu3O6.98,8.0
1664,Nb3Ga0.5Sn0.5,16.4
1665,La1Fe1P0.6As0.4F0.1O0.9,20.86
1666,Sm1.7575Gd0.0925Ce0.15Cu1O4,15.0
1667,Pr1Fe0.9Co0.1As0.8P0.2O1,10.9
1668,Y1Ba2Cu2.94Co0.06O7,78.3
1669,Er1Ba2Cu2.9Ga0.1O6.78,86.0
1670,Ti0.2V0.8,7.305
1671,Pr1Fe0.85Co0.15As1O1,7.485
1673,B0.978C0.022Si1,1.35
1674,Hg0.85Re0.15Ba2Cu1O4.53,96.3
1675,Nd1.72Ta3.28S2,4.3
1676,C1Ba3Ca3Cu5O13,111.5
1679,Ag1Th2,2.225
1680,K0.65Fe1.41Se2,32.0
1681,Pd2Y1Pb1,2.3
1682,Nd1Ba2Cu3O6.65,34.3
1683,Re24Sc5,2.2
1684,La1Fe0.8Ru0.2As1F0.11O0.89,19.7
1685,Dy1Ba2Cu2.94Ni0.06O6.72,81.0
1686,Y1Ba1Sr1Cu2.8Sn0.2O7.122,49.3
1687,Hg0.75Ba2.07Ca2.07Cu3.11O8.136,132.9
1688,Al0.02V0.98,4.05
1689,La1.85Sr0.15Cu0.966Ni0.034O4,9.4
1690,Pd0.07Ti0.93,3.26
1691,Gd0.11Sm1.74Ce0.15Cu1O4,17.8
1692,La1.78Sr0.22Cu0.97Ru0.03O4,15.6
1693,Be5Pt1,2.3
1694,As1Ga1,5.7
1695,Mo0.15Nb0.85,5.575
1696,Er1Ba2Cu2.97Zn0.03O6.93,81.0
1697,Sn0.6646Pb0.2854In0.05Te1,2.28
1700,Pb0.32Sn0.48In0.2Te1,4.19
1701,Nb2Pd1S4.25Se0.75,3.18
1702,Y1Ba1.925La0.075Cu3O6.9,99.0
1703,Ba0.4K0.6O3,7.0
1705,Bi0.02Sn0.98,3.85
1706,La1Pt2.2B2C1,6.5
1707,La1.85Sr0.15Cu0.9925Zn0.0075O4,28.7
1709,Lu0.275Rh0.725,1.27
1710,Pb0.5Cu0.5Sr0.8La1.2Cu1O5.16,28.0
1712,Ho5Os4Si15,4.5
1713,La1Fe1As0.2P0.8O1,11.42
1715,C1Tc1,3.85
1718,Fe0.95Ni0.05Se1,10.0
1719,Ce1Rh0.13Co0.87In5,1.73
1721,Nb1Re3,5.27
1722,Ta0.8Mo0.2C1,8.5
1723,B2.5Mo1,7.775
1725,Na0.45Co1H2.6O3.3,2.0
1726,La1.943Sr0.057Cu1O4,4.51
1727,Ca0.4Ba1.35La1.25Cu3O6.92,14.4
1728,Nd1Ba1.8Sr0.2Cu3O6.96,91.1
1731,Y2La0.4Ba3.6Cu6O13.91,78.0
1732,La1.9Gd1.1Ca1Ba2.4Sr0.6Cu6.58In0.42O16.554,58.0
1733,V50Ti40Mo10,6.2
1734,Fe0.98Mn0.02Se0.5Te0.5,14.4
1737,La0.4Th0.6Ni1C2,7.6
1739,Y1Ba2Cu2.91Zn0.09O6.93,55.0
1743,Bi4Sr3Ca1.2Y1.8Cu4O16,79.3
1744,Nb3Si1Sn1V3,4.0
1745,Pr1.85Ce0.15Cu0.993Ni0.007O4.065,7.02
1746,Yb0.95Pr0.05Ba1.7Sr0.3Cu3O6.91,81.0
1747,Ba0.6K0.4Bi0.99Pr0.01O3,26.4
1748,Y0.6Ca0.4Ba1.3La0.7Cu3O7.12,82.0
1750,Dy1Fe1As1O0.85,51.0
1751,Y1Ba2Cu3.8Fe0.2O8,64.0
1752,Sr1Fe2As1.4P0.6,28.93333333
1753,Y1Ba1Sr1Cu2.8Sn0.2O7.12,49.8
1754,La1.83Ba0.17Cu1O4,26.9
1755,Y1Ba2Cu2.82Al0.18O7,20.0
1756,Sr1Ba1Y1Cu2.8Al0.2O7.15,20.0
1759,Au0.65Pt0.35Te2,4.1
1760,La2.4Se4Y0.6,3.92
1762,La1.85Sr0.15Cu0.988Fe0.012O4,11.6
1764,Ca1Cu0.25Si1.6,3.0
1765,Nb3Al0.95Ge0.05,20.0
1767,In0.94Pb0.06,3.9
1768,Na0.35Co1H1.3O3.3,3.7
1769,Pb0.5Cu0.5Sr1La1Cu1O5.05,36.7
1770,Rh0.04Ta0.05Ti0.91,2.3
1772,Th1.8Lu0.2C3,10.3
1773,Li0.84H1Fe1.14Se1O1,42.0
1774,Sm4Fe2As2Te0.72F1.2O2.8,40.0
1776,Mg1C1Ni2.999Fe0.001,6.93
1777,Tm0.6Pr0.4Ba2Cu3O6.95,50.3
1778,Y0.8Ga0.2Ba2Cu4O8,69.0
1780,Tl1Sr2Ca0.4Y0.6Cu2O7,35.0
1781,Th1.8Sc0.2C3,6.7
1782,Sr1Fe1.84Pt0.16As2,16.0
1783,Y1Ba1.6La0.4Cu3O7.14,69.075
1784,La1.25Ba1.45Ca0.3Cu3O7.15,75.2
1786,La1.2Ba1.3Sr0.5Cu3O6.943,45.1
1790,Ca9.35Dy0.65Pt3Fe10As18,20.9
1791,Mg0.8Al0.1Li0.1B2,31.95
1795,Nb0.9Re0.1,4.5
1796,Pd2Y0.5Tm0.5Sn1,3.65
1798,Y1Ba2Cu3H1.15O6.91,76.7
1800,C1Hf0.9Ta0.1,5.0
1801,Na0.26Co1H2.6O3.3,3.2366666669999997
1802,Y1Ba2Cu2.94Zr0.06O6.81,92.3
1803,Hg3K1,3.18
1804,Bi1.7Pb0.3Sr2Ca2Cu3F0.8O9.2,117.6
1805,Hg0.7Pb0.3Ba2Ca2Cu3OY,127.0
1806,Ho0.6Dy0.4Ni2B2C1,5.98
1807,Bi1.95Sr1.25Pr0.8Cu1O4,17.0
1808,Y4Ir6Sn19,2.2
1809,La1.562Nd0.288Ca0.106Ba0.044Cu1O4,23.0
1810,Y1Ba1.7Cs0.3Cu3O6.6,93.75
1811,V0.4Zr0.6,7.8
1813,C1.35Ge0.1Y0.9,10.6
1814,Al0.6Mg0.4,1.7
1815,Re0.999W0.001,1.723
1816,La1.5Nd0.5Ca1Ba2Cu4.75Mo0.25O11.143,70.0
1817,Y1Sr2Cu2.675Ti0.325O6.6,21.0
1818,Ba2Sr6Si46,4.1
1819,La3Ca0.9Cd0.1Ba3Cu7O16.611,77.5
1821,Pd0.5Ag0.5Th2,1.2
1822,Al0.1Fe0.9Se0.85,8.5
1823,Ru2Sc1.2,1.67
1825,Pb0.4Yb0.6Mo6Se8,7.9
1826,Nb3Al0.3Ge0.7,9.1
1827,Gd0.85Hf0.15Ba2Cu3O6.84,81.8
1828,Hg0.9Mo0.1Ba2Cu1O4.2,75.0
1829,La0.987Gd0.013Sn3,5.94
1830,Ho1Ba2Cu2.94O6.94,77.0
1831,Nb3Al0.8Be0.2,17.0
1833,Y1Ba2Cu2.931Zn0.069O6.7,28.0
1834,Al0.1Ga0.9V3,13.9
1835,Bi0.1Pb0.4La1.3Sr1.2Cu2O5.83,25.0
1836,C3Er1Th1,4.6
1838,Ru1Sr1.98La0.02Eu1Cu2O8,14.0
1839,Ti0.64Nb0.34Ta0.02,8.99
1840,La1Fe0.4Zn0.6As1F0.15O0.85,24.6
1841,Al0.99Li0.01,1.07
1845,V2.799Cr0.201Ga1,12.6
1846,Mo3Si1.3,1.3
1847,Mg0.815Al0.09B2,32.7
1848,Ca0.4Ba1.25La1.35Cu3O7.19,72.9
1850,C0.42Mo1,2.8
1852,Y0.8Ca0.2Ba2Cu3O6.86,79.0
1855,Nd1.85Ce0.15Cu0.999Co0.001O4,15.5
1856,Y1Ba2Cu2.9Fe0.1O6.72,33.0
1857,Gd1.2Mo6S8,1.4
1859,Tm1Ba2Cu4O8,79.42
1860,Sr2Ca12Cu24O41,6.471666667
1861,Al1La3,5.986666667000001
1863,La1Ru2,3.7032
1864,Y0.7Pr0.2Ca0.1Ba2Cu4O8,73.4
1865,Ba7.61Si46,8.2
1867,Be0.99Re0.01,9.25
1868,La1Ru3Os1P12,7.0
1869,Y1Ba2Cu3H0.21O7,86.0
1870,Sr1Fe1.86Co0.14As2,7.2
1873,Sr1.8Ca0.2V1Fe1As1O3,13.7
1874,Hf0.99Ta0.01V2,9.11
1876,Ga0.3V2Al20,1.5175
1877,Au0.95Pd0.5Ga2,1.75
1878,Dy1Ba2Cu2.8Ni0.2O6.83,63.0
1879,Tl1Sr2Ca1Cu2O6.837,31.5
1880,Y1Ba2Cu2.94Ni0.06O6.56,37.5
1881,Ca0.3Nd0.7Ba1La1Cu3O7.24,14.3
1882,La1Rh1Sb1,2.1
1883,Y1.8Ti0.2C2.7,10.7
1884,Mo0.15Nb0.68Pd0.17,1.22
1886,Nb0.75Al0.16Ge0.09,19.7
1887,La1Fe1As0.9Sb0.1F0.2O0.8,28.6
1892,Lu0.8Dy0.2Ru1B2,5.07
1893,La1Fe1As0.9P0.1F0.05O0.95,23.6
1894,Yb1Ba2Cu3O6.71,87.0
1895,Bi2Sr1.3Ca0.7Cu1O6.15,84.0
1896,As0.15In0.15Nb3Sn0.7,17.99
1898,Y0.85Ca0.15Ba2Cu2.85Ni0.15O6.85,67.0
1899,Bi3.99Cu0.01S3O4,3.935
1901,V2.739Hf0.261Ga1,6.4
1902,Nb3Al0.9Se0.1,17.6
1903,Th1Pt2B2C1,6.6
1905,Ni19.75Zr79Mn1.25,1.92
1908,Nb2S1C0.9,5.0
1911,Y0.3Cd0.7Ba2Cu3O7,87.0
1912,La1.8Nd0.2Cu1O4.059,26.7
1914,Bi2Sr2Ca0.9Gd0.1Cu2O8,80.0
1915,Nb0.92Sn0.08,5.6
1916,Na3.5N0.5C60,14.7
1917,Ti0.564V0.376Ru0.06,4.72
1919,La1.8Nd0.2Cu0.99Zn0.01O4.0631,4.87
1921,Mo0.18Tc0.82,13.7
1924,C0.55W0.45,8.1
1925,Ba0.7Na0.3Fe2As2,23.8
1926,Cu0.12Bi2Se3,3.8
1927,Lu0.85Pr0.15Ba2Cu3O7,89.7
1928,Y3Dy2Os4Ge10,4.8
1930,Fe1Se0.72,8.0
1931,Au0.27Tl0.73,2.04
1932,Ca3Rh4Sn13,7.4775
1933,Ba1Pb0.85Bi0.15O3,8.7
1935,Ca0.1La1.25Ba1.65Cu3O6.985,5.0
1936,Ir0.92Pt0.08Te2,2.385
1937,Ca1Fe0.91Co0.09As1H1,22.7
1938,Sb0.011Sn0.989,3.642
1940,Al1Sc1Au2,4.4
1941,Yb0.5Pr0.5Ba2Cu3O6.67,38.7
1942,Er1Th3.4Ru0.6B4,7.9
1943,Ba4Ca4Si46,3.7
1944,As2Cd1Sn1,2.29
1945,Y1Ba2Cu2.9Al0.1O7,75.0
1946,Sr1Ga0.6Si1.4,2.98
1947,Li1.3Zr1N1Cl1,11.0
1948,Ba0.39K0.61Fe2As2,24.5
1950,Bi3.975Cu0.025S3O4,2.99
1951,C1Hf0.5Mo0.5,3.4
1957,Mo3Os1,11.0225
1958,Cr0.06V0.94,2.93
1959,Bi2Sr2.2Ca0.8Cu2O8,89.9
1960,Mg0.9Cu0.1B2,38.6
1961,Bi1.7Pb0.3Sr2Ca0.7Y0.3Cu2O8.26,73.0
1962,Mo0.5Pt0.05Re0.45,5.32
1964,Bi1.7Pb0.3Sr1.7La0.3Cu1OY,23.0
1965,Nd0.95Pr0.05Ba2Cu3O6.6,4.1
1966,Gd1Ba1Sr1Cu3O6.77,4.0
1967,B2.6Nb1,10.9
1968,Ca10Pt4.2Fe9.8As18,30.0
1971,Hg1Tl1Ba2Ca1Cu2O8,35.0
1974,Ca0.84Nd0.16Fe1As0.9Sb0.1,43.0
1976,Ca0.27Sr0.63Cu1O2,110.0
1977,Ti0.415V0.585,7.49
1978,Pb0.95Tl0.025Bi0.025,7.2139999999999995
1980,Y1Ba2Cu4Li0.016O8,77.0
1981,Al0.175Nb0.775Zr0.05,10.0
1982,La1.35Sm0.45Sr0.2Cu1O4,12.0
1984,Be6Ga1,6.0
1985,H0.59Nb0.72Pd0.28,3.12
1986,Y1Ba2Cu2.9Co0.1O6.82,73.0
1987,Y1Ba2Cu2.94Fe0.06O7.254,91.0
1988,Sn19Er4Rh6,1.32
1989,H0.28Mo0.15Nb0.68Pd0.17,4.92
1990,Y0.9Ca0.1Ba2Cu3O6.7,73.0
1991,Bi2Sr1.8Ca1Y0.2Cu2O8.25,90.4
1992,Sm1Fe0.94Ni0.06As1F0.12O0.88,18.8
1993,Yb0.2Mo1S2,2.4
1994,Ag1Bi1,1.39
1995,Ba0.67Pt3B2,5.6
1998,Bi0.35Pb0.65,8.7
2000,Nb3Ga0.95Ge0.05,15.35
2001,La1.83Sr0.17Cu0.98Mn0.02O4,18.1
2002,Y0.6Pr0.4Ba2Cu4O7.95,63.0
2003,Bi1Pb1Sr1.5La0.5Cu1O6,16.3
2004,Y0.5Pr0.5Ba2Cu3O6.85,4.0
2006,La2.3Gd0.6Ca1.2Ba2.9Cu7O16.543,80.0
2007,Nb3Rh0.95Pd0.05,2.49
2008,La0.84Sn3Tm0.16,3.3
2010,Fe1Se0.246Te0.574,13.7
2011,Nb0.8Ga0.13Ni0.07,8.1
2012,Re0.64Ta0.36,1.46
2014,La1Fe0.995Zn0.005As1O0.85,14.1
2017,Nb0.8Ru0.2,4.8
2018,Ta0.03Zr0.97,2.01
2019,Li2Pd3B1,7.497000000000001
2021,Eu1.7575Gd0.0925Ce0.15Cu1O4,4.7
2024,B2Nb0.9,3.64
2026,Fe1Te0.65Se0.35,15.0
2027,B5Nb1.9Y0.1,9.3
2028,Ba1.6Sr0.4Yb0.85Ca0.15Cu3O6.83,76.0
2029,Ru0.465V0.535,5.8
2030,Y0.12Er0.88Rh4B4,8.74
2031,Y1Ba2Cu3H0.2O6.98,94.5
2032,Sm1.7575Y0.0925Ce0.15Cu1O4,14.0
2036,Cu1Se1Te1,1.8
2037,Nd1.3Ba1.7Cu3O7.14,32.0
2038,La1Bi1S1Se1F0.5O0.5,3.78
2039,Ca1Fe0.8Co0.2As1F1,16.5
2041,Bi1Sr0.9Nd0.1Cu1OY,10.74
2045,La1.85Sr0.15Cu0.973Co0.027O4,2.5
2048,Mg1C0.925Ni3,7.09
2052,La1Fe1As0.6P0.4F0.1O0.9,27.0
2053,Tl1Sr2Ca0.6Y0.4Cu2O7,68.0
2054,Al3Os1,5.9
2058,Hg0.0307Pb0.9693,7.1339999999999995
2060,Bi0.2Pb0.4S0.4Sr2Ca0.7Nd0.3Cu2O6.99,78.0
2061,Nb0.21Ti0.61Zr0.18,7.21
2062,Ru1W1,7.5
2063,Y0.7Pr0.3Ba2Cu3O6.965,55.0
2064,Pd50.93625Fe0.06375Sb49,1.22
2066,Nb2.55Zr0.45Sn1,17.9
2068,La1.77Sr0.23Cu1O4,21.15
2069,Nb1Sn1V2,5.5
2070,La0.95Pr0.05Pb3,3.3
2071,Tl1Sr2Ca1Cu2O6.76,21.0
2072,Y1Ba2Cu2.97Zn0.03O6.77,67.0
2073,La1.85Sr0.15Cu0.996Zn0.004O4,33.825
2074,La1Mg2,1.05
2078,Nb0.1Zr0.9,7.6
2079,Mo0.67Zr0.33,1.56
2080,Al13Os4,5.4
2081,Y1Ba2Cu3H1.4O6.98,92.0
2082,B1Mo2,4.1125
2083,Cu0.5C0.5Ca3Cu2O6.6,57.0
2084,Eu1Ba1.8Pr0.2Cu3O6.69,46.0
2085,La1.83Sr0.17Cu0.94Fe0.06O4,26.5
2086,Al2Ge2U1,1.6
2087,C0.35N0.65Nb1,17.8
2088,La1.75Sr0.25Cu0.94Ni0.06O4,36.5
2089,Hf1Rh1Si1,1.15
2091,Ho0.45Lu0.55Ni2B2C1,10.0
2092,La1.48Nd0.4Sr0.12Cu1O4,7.072857142999999
2093,Ca0.285Sr0.665Cu1O2,110.0
2094,La1.2Ba1.5Ca0.3Cu3O6.93,60.0
2096,La1.85Sr0.15Cu0.98Ru0.02O4,10.8
2097,Mn0.67Ni0.33U6,2.7
2098,Dy1Fe1As1F0.1O0.9,45.0
2099,Bi1.8Pb0.2Sr2Ca1Cu1.96Co0.04O8,50.7
2100,La2Cu1O4.07,40.4
2102,Y1Ba2Cu3O6.906,92.4
2103,Sm1Fe1As0.47P0.53H0.24O0.76,5.5
2105,Co3Y4,2.0333333330000003
2109,N0.998Nb1O0.002,17.3