,composition,Tc
0,Ba0.4K0.6Fe2As2,31.2
1,Ca0.4Ba1.25La1.25Cu3O6.98,40.1
2,Mo0.39Ru0.61,6.9
3,Tm4Os6Sn19,1.1
4,Nd1Bi0.99Pb0.01S2F0.3O0.7,4.85
5,V0.784Ga0.172Al0.044,9.4
6,La1.71Sr0.29Cu0.94Co0.06O4,33.0
8,N0.82V1,2.9
9,Be0.86Pb0.14,9.7
10,Nb3Sn0.85Tl0.15,18.2
11,Pb0.5Cu0.5Sr0.9La1.1Cu1O5.16,28.1
14,Nd1.1Ba1.9Cu3O6.96,87.6
15,Y0.887Ba1.962Ca0.15Cu4O8,91.8
16,Ba0.33Hf1N1Cl1,20.2
17,La2Cu0.975V0.025O4.032,40.0
18,Sm12Cu2.96Ni0.04O6.88,83.0
19,Cu1.5Mo4.5S6,10.9
20,La0.9974Tb0.0026,5.28
21,Y0.9Ce0.1Ni2B2C1,11.9
23,La2.9628Gd0.0372In1,5.04
24,Pd2Zr0.9Nb0.1Al1,2.1
26,Ru0.8Sr2Y1Cu2.2O8.1,65.0
27,Y1Ba2Cu2.76Co0.24O6.999,50.7
28,La2.9553Gd0.0447In1,4.3
29,Nb2.5Sn1V0.5,14.2
30,La1.73Sr0.27Cu0.94Mn0.06O4,37.0
31,Ho0.75Y0.25Ni2B2C1,8.9
32,Ga0.25Fe0.75Se0.85,6.8
34,Zr54.6Ti23.4Ni22,2.78
36,Sr0.7Ba1.3Y1Cu2.8Al0.2O7.11,20.0
37,Ca1Hg3,1.6
38,Bi1Ga1Sr1.8Ca1.2Cu2O8,24.8
41,Y0.35Pr0.65Ba1Sr1Cu3O6.9,20.3
43,Gd0.2Nd1.65Ce0.15Cu1O4,18.5
45,Nb1C0.2N0.74,17.5
46,Pr1Os3.8Ru0.2Sb12,1.655
47,Bi2Sr1.6Pr0.4Cu1O6.313,21.8
48,Bi4Sr3Ca2.7Y0.3Cu4OY,81.7
49,Mo0.8W0.2C1,12.0
50,Ga0.02Sn0.98,3.7260000000000004
52,Er0.95Gd0.05Rh4B4,7.61
53,Au0.499Ga0.501,1.17
54,In0.17Tl0.83,3.45
55,La1.78Sr0.22Cu0.98Zn0.02O4,9.555
56,K0.82Fe1.63Se2,32.0
58,La1.82Nd0.03Sr0.15Cu1O4,34.2
59,La1.887Ca0.1125Cu1O4,20.1
62,Ba1Fe1.83Zn0.06Co0.11As2,17.0
64,Fe0.5Ba1Sr1Tm1Cu2.5O7.432,40.0
66,La1.825Ba0.175Cu1O4,26.2
68,La1.5Er0.5Ba2Ca1Cu5O11.907,78.0
69,Sm0.96La0.84Sr0.2Cu1O4,35.0
70,Cu0.5P0.5Sr2Ca1.8Y0.2Cu3O9.55,80.0
72,Sr1Ga0.5Si1.5,3.5
73,Ca0.4La1.25Ba1.35Cu3O7.135,76.0
75,Nb0.995Ta0.005,9.226
76,Fe1Se0.5S0.5,2.75
77,Ce1Rh1In4.84Sn0.16,1.2
78,Y0.8Ca0.2Ba2Cu2.8Co0.2O6.98,82.5
79,Na0.32Co1H2.6O3.3,2.825
82,Bi2Sr2.4Ca0.6Cu2O8,94.2
83,La1.751Ba0.249Cu1O4,13.7
84,La0.5Y0.5Fe1As1O0.6,39.3
85,La2Pt3Ge5,8.1
86,Al0.75Ge0.25Nb3.8,20.34
87,La1.7Er0.3Ba2Ca0.6Cu4.6O10.92,70.0
88,La1Fe0.99975Mn0.00025As1F0.11O0.89,23.8
89,Y1Ba2Cu2.97Zn0.03O6.63,42.5
90,Ba0.635K0.365Bi1O3,30.4
91,La1.85Sr0.016Ca0.074Ba0.06Cu1O4.01,25.4
93,Ga0.1Fe0.9Se0.85,6.8
94,Nb0.64Ta0.36,6.8
95,La0.97Nd0.03Pt1Si1,3.27
96,Bi0.055Sn0.945,3.94
98,Y1Ni1.9Mn0.1B2C1,12.7
101,Y1Ba2Cu3Li0.02O7,91.18
102,Mg1.2C1.44B0.16Ni3,6.6
103,Bi4Sr3Ca1.6Y1.4Cu4O16,79.8
105,Bi4Rh1,1.966666667
106,Y1Ba1.86La0.14Cu3O6.98,89.4
107,Pd2.2S1,1.63
108,Ge1V3,6.86
109,Y1Sr2Cu2.8W0.2O6.9,45.0
110,Bi2Sr1.8Y0.1Ca1.1Cu2O8.23,93.0
111,Nb0.8V0.2,5.76
113,Fe1.03Te0.7Se0.3,12.7
115,Ba0.51K0.49Bi1O2.974,22.2
119,Yb1Ba2Cu2.982Zn0.018O6.9,85.1
122,Fe0.2Ni0.8Zr2,2.13
123,Bi2.1Sr1.8Ca1Cu1.982Zn0.018O8,83.0
125,La1Ba2Cu2.9O6.82,45.0
127,Rh45Ta55,3.37
129,Y1Ba2Cu4O7.8,77.5
130,As1Nb3,2.353333333
131,La0.5Th0.5Sn3,4.67
132,La1.65Sm0.15Sr0.2Cu1O4,24.0
134,Pb0.3325Sn0.6175In0.05Te1,1.61
136,La1Fe1As1H0.3O0.7,38.0
137,Er0.88Ca0.12Ba2Cu2.82Co0.18O6.93,77.5
138,Ba1Fe1.84Co0.13Mn0.03As2,8.0
140,La7Ru3,1.835
141,Ir0.125Rh0.125Zr0.75,10.2
142,Al0.999Fe0.001,1.5
143,Ba0.542K0.458Bi1O3,23.1
144,Y0.6Lu0.4Ir4B4,3.06
145,Sr0.66Eu0.34Fe1.76Co0.24As2,9.82
147,Y0.9Pr0.1Ni2B2C1,11.2
149,Co7Y9,2.85
150,La1Ru4Sb12,3.293333333
151,Al0.25Fe0.75Se0.85,8.5
153,Pd2Y0.25Tm0.75Sn1,3.06
154,Mg0.9Zn0.1B2,38.4
156,Nb2.85Hf0.15Al1,14.4
157,Nb0.9Ru0.1,2.8
158,Ca0.67Pt3B2,1.57
159,Ba1Fe1.894Pd0.106As2,13.3
161,Er1Ba2Cu2.78Zn0.18Fe0.03O6.93,46.0
164,Fe0.5Ba2Eu1Cu2.5O7.51,60.0
165,Pt1V3.5,1.26
166,Sm1.5Ce0.5Sr2Cu2Nb1O10,25.0
167,Sr0.75Y0.25Cu1O2,38.6
168,Pb0.93Tl0.075,6.98
169,La1Fe0.985Ru0.015As1F0.11O0.89,27.5
170,Bi2Sr2Ca1Cu2O8.2135,70.0
171,Cu0.025V0.975,4.45
172,Ir1Mo1,5.325
173,La1Fe1As1F0.18O0.82,14.3
174,Pr1Fe0.9Co0.1As0.95P0.05O1,14.2
175,Th1Ni2B2C1,6.966666667
176,La1Os2Ru2P12,7.0
177,Lu1Ni1.93Co0.14B2C1,10.5
178,Er0.25Ho0.75Rh4B4,6.44
179,Nb2.7Ti0.3Sn1,16.4
180,Bi1.7Pb0.3Sr2Ca0.98Nd0.02Cu2O8.05,80.89
181,Cd0.01In0.99,3.3445
182,Li0.28Zr1N1Cl1,13.4
183,Y0.8Ca0.2Ba2Cu2.8Zn0.2O6.74,44.0
184,Y1Ba2Cu3.99Zn0.01O8,73.3
186,Ba1Ti2Sb1.6Sn0.4O1,2.31
187,Nb0.4Ti0.4V0.2,7.6
188,La3Te4,4.0275
189,Fe2As2Sr4V2O6,27.0
192,Nb0.4Zr0.6,8.86
195,Fe2As2Sr4Mg0.6Ti1.4O6,29.0
197,Mg0.79Al0.21B2,27.1
198,Cu0.06Ta1S2,4.16
199,La1Ni1Ga2,1.97
200,Nb2.985Hf0.015Al1,18.0
201,Ca1Ba1La1Cu3O6.97,64.0
203,Y2I0.6Br1.4C2,6.4
204,Au0.3Te0.7,1.99
205,Ho0.5Dy0.5Ni2B2C1,5.905
206,Dy1Ba2Cu3O6.68,90.0
208,Er1Ba2.03Cu3.05O7,90.0
209,Si10.9V3C0.1,16.4
210,Nb25Ti75,7.2
211,Rh1W1,3.37
212,Ca0.2Ba1.55La1.25Cu3O6.98,10.4
213,Dy0.9Tm0.1Ni2B2C1,4.55
214,Cu1Th2,3.465
216,Y1Ba1.25Sr0.75Cu3O6.928,85.5
217,Er0.9Gd0.1Rh4B4,6.88
218,Y1Ba2Cu2.7Ni0.3O6.9,46.0
219,In1.015Te1,3.51
220,Dy1Ba2Cu2.7Ga0.3O6.77,39.0
221,Pd0.7Se0.3,2.04
224,Hg1Ba2Cu0.97Zn0.03O4.052,69.0
227,Y1Re0.1Ba2Cu2.9O7,91.5
228,V0.75Ge0.2Al0.05,10.3
232,V2Hf0.84Nb0.16,10.67
233,Ge1.85La1,2.17
236,Nb0.72Pd0.18W0.1,1.5
237,La2Cu0.98Zn0.02O4.099,19.2
239,La0.05Ce0.95Ru2,7.181
240,Lu4.5Sc0.5Ir4Si10,6.06
241,La2Cu1O4.047,29.7
242,La1Sn3,6.358285714
243,Pd1Sn2,3.34
244,Ca1Fe2.94Co0.06As2,17.0
245,B2.4Nb1,9.96
246,Ba1Ni2Ge0.8P1.2,1.38
247,Bi2Sr1.6Ca1.2Y0.2Cu2O8.26,89.1
248,Mo64Ru16P20,7.31
249,Zr70.2Ti7.8Ni22,3.32
251,Y1Ba2Cu2.7Co0.3O6.93,16.9
252,Mo1.935Zr0.065B1C1,6.2
253,Tl0.5Pb0.5Sr4Cu2C0.9N0.1O7,76.0
254,La0.8Hf0.2Bi1S2O1,2.36
255,Ta0.05V0.095,4.3
256,Y1Ba2Cu1O8,82.25
257,Ru1Sr2Gd0.91Nd0.09Cu2O8,23.5
259,Bi0.16Pb0.35V0.05Sr2Ca2Cu3O10.12,103.7
261,La0.6Y0.4,1.29
262,Tl1.8Ba2Ca2.2Cu3O9.92,112.0
263,Ru0.9Sr2Er1Cu2O7.8,23.0
264,C1S1,9.0
266,Y0.85Ca0.15Ba2Cu3O6.58,80.6
269,Pd0.285Zr0.61O0.105,2.09
270,La0.2Th0.8Ni1C2,4.2
272,Y1Ba1.9Ca0.1Cu4O8,85.4
273,La0.5Sm0.5Ba1Ca1Cu3O7,66.0
274,Er1Ba2Cu3O6.67,85.0
278,Rh0.4Zr0.6,7.0
279,V0.65Ge0.1Al0.25,7.0
280,La0.2Th0.8,1.87
281,Li1.1Ti1.9O4,10.05
282,Nb25Ti74Ta1,7.55
283,C1Nb0.1Zr0.9,4.2
286,Tm1Ni1.88Co0.24B2C1,1.6
287,Ce1Co1In4.96Cd0.04,2.05
289,Pr0.98La0.02Os4Sb12,1.8
290,Rh41Zr59,2.44
291,La1.425Nd0.4Sr0.175Cu1O4,25.0
292,In2Mo6Se6,1.425
293,Th1Ir3B2,2.09
296,V0.75Si0.2Al0.05,11.8
302,Bi0.9Sb0.1,5.2
303,Gd0.02Pr1.83Ce0.15Cu1O4,18.5
304,Y1Ba2Cu2.91Zn0.09O6.6,6.0
305,Ta0.0355V0.9645,4.55
307,La0.95Pr0.85Sr0.2Cu1O4,27.0
308,La1.7Gd1.3Ca1Ba2.2Sr0.8Cu6.44In0.56O16.6,30.0
309,Ca0.1Ba1.65La1.25Cu3O7.03,29.9
311,La7Ir3,2.33
313,Ce0.005La0.995,4.935
314,In0.75Sn0.25,5.95
315,Ba1Fe1.81Zn0.08Co0.11As2,11.0
317,B0.67Mg0.33,6.1
320,La0.9Ce0.1Ru2,3.012
321,Mo0.3U0.7,1.97
322,La1Fe1As1F0.06O0.94,18.0
323,Nb2In1C1,7.5
325,Ba0.91Ce0.09Fe2As2,4.12
327,Nb41.25Ta13.75Ir45,4.35
328,La1.75Sr0.25Cu1O3.921,19.6
329,Sm1.844Ce0.156Cu1O4,16.4
330,C1Mo0.8Ta0.2,8.7
331,Y1Ba2Cu3.99Ni0.01O8,78.4
333,Hg3Zr1,3.28
335,Sr1Fe1.5Ru0.5As2,10.25
337,Pb0.987Tl0.013Te1,1.32
338,Sm1La0.8Sr0.2Cu1O3.925,19.6
339,Sn0.8075Pb0.1425In0.05Te1,2.81
340,Y1Ni1.94Co0.06B2C1,11.8
341,Y1Ba2Cu2.98Ni0.02O6.95,87.5
343,La1Nd0.87Ce0.13Cu1O3.975,16.8
344,Bi2Sr2Ca0.65Y0.35Cu2O8.3,74.0
345,V3Ga0.793Sb0.207,6.9
346,Al0.3Be0.7,6.5
347,Pb0.6Cu0.4Sr1La1Cu1O5.06,37.8
349,Pd1.05Te2,1.77
350,Pr1.85Ce0.15Cu0.98Zn0.02O4.065,18.01
351,Li2B1Pd0.9Pt2.1,2.31
352,Nd1.3Ba1.3Sr0.4O6.828,35.0
353,Y1Ni1.86Fe0.14B2C1,6.2
355,In1.1Te1,2.8
356,Bi2Sr2Ca0.9Y0.1Cu2O8.2,89.0
357,C3Ho0.4Th1.6,5.5
359,Er4Rh6Sn19,1.2
360,B2.5Nb1,6.4
361,V2Ir1B2,1.12
363,Tm1Ba2Cu3O6.94,89.88
364,La0.9Ba1.5Ca0.6Cu3O6.74,73.0
365,Sc0.7Y0.3Ni2B2C1,14.5
366,La1.2Ba1.8Cu3O7.3,27.0
367,Bi1Pd1Te1,1.2
368,Ba1Fe1.64Ru0.36As2,8.43
369,Tm1Ni1.98Co0.04B2C1,9.2
370,Ba0.7K0.3Fe1.72Co0.28As2,12.0
371,Ga5V2,3.57
372,Ba0.5K0.5Fe2As2,35.28
373,La2Ba4Cu6O13.8,65.0
376,Fe1.02Te0.5Se0.5,13.6
377,Fe1Se0.4Te0.6,14.1
378,La1.875Ba0.05Sr0.075Cu1O4,15.25
379,Y1Sr2Cu2.75Re0.25O7.3,49.0
380,La0.8Y0.2Fe0.997Mn0.003As1F0.11O0.89,28.9
384,Ca9.39Pr0.61Pt3Fe10As18,19.5
386,Y1Ba2Cu3O6.773,71.2
387,K0.95Bi1.05O3,8.1
388,Ca0.82La0.18Fe1As1.99P0.01,39.0
389,C1Hf0.5Nb0.5,4.8
391,La0.97Gd0.03Ru2,2.73
392,Y1Ba2Cu2.91Zn0.09O6.95,56.0
393,Ce1Ru1.97Co0.03,3.5
394,Mo0.1Ti0.9,3.25
395,Pr0.89La1Ce0.11Cu1O4,24.6
396,K0.8Fe1.979Mn0.021Se2,31.0
397,V0.75Ge0.1875Al0.0625,11.4
399,Fe1Sr2Y1Cu2O7.66,43.5
400,Tl2Ba2Ca0.9Ce0.1Cu2O8,100.0
402,Au0.988Pd0.012Ga2,1.25
403,Y1Ba2Cu2.95Zn0.05O6.63,25.0
404,Pd1Te1,3.01
407,Nb0.9Ti0.1,9.61
408,Ca0.8La0.2Fe0.9558Co0.0442As2,35.1
409,Sr15.9Ca7.6Cu17.6C3.3B2.6O53,105.0
410,Y1Ba1Sr1Cu3O6.9,92.0
411,La1Fe0.9Rh0.1As1O1,14.0
412,Ba1Ti2Sb1.6Bi0.4O1,3.47
415,Nd0.9Pr0.1Ba2Cu3O6.75,35.9
416,Ag0.1Tl0.9,3.57
417,Ga22Nb78,15.6
419,Mo0.98Nb0.02Ga4,8.0
421,Pt1Sb1,2.1
422,Li0.33V2O5,8.5
423,Ta0.85W0.15,1.95
424,In0.8Tl0.2,3.2230000000000003
425,Ti0.588V0.392Fe0.02,6.79
428,La1.72Nd0.2Ba0.08Cu1O4,16.9
430,Gd0.71Pr1.14Ce0.15Cu1O4,8.1
432,Cu2Mo6S6O2,9.0
433,La1.6Er0.4Ba2Ca0.8Cu4.8O11.424,76.0
434,In0.25Tl0.75,3.64
435,Bi4.4Sr3.6Ca2Cu4OY,83.6
436,Lu0.92La0.08Ni2B2C1,13.6
437,Bi1.5Pb0.5Sr1.7La0.3Cu1O5.993,15.6
438,Hf0.33Nb0.33V0.33,6.6
439,Nd1Ba2Cu3O6.67,29.0
440,La0.85Ca0.15Nd1Cu1O4,23.0
441,Lu4.5Tm0.5Ir4Si10,2.84
445,Sr11Ca10Cu24O41,3.0
446,La0.85Ce0.15Ru2,2.444
448,Nb2.895W0.105Al1,16.0
450,Zr1Ru0.95Rh0.05P1,6.15
454,C0.97Ta1,11.84
455,Nb0.94Ta0.06,8.76
461,Tl0.5Pb0.5Sr2Ca0.8Y0.2Cu2O7,105.2
462,Mg0.996Cu0.004B2,38.11
463,La1.5Nd0.5Ca1Ba2Cu4.95Mo0.05O11.345,76.0
467,B1I3,1.86
468,Nb79.5Sn2.1Al6.1Ge12.3,9.4
470,Y0.6Pr0.4Ba2Cu3O6.85,27.8
471,Bi0.07Pb0.93,7.7
472,Nb0.26U0.74,1.85
473,Pd1Zr3,2.96
475,Y0.6Ca0.4Ba1.6La0.4Cu3O6.95,82.0
476,Hg1Tl1Ba2Ca3Cu4O12,110.0
477,Y1Ba2Cu2.8Fe0.2O6.85,57.7
479,Er0.9Tb0.1Ni2B2C1,8.52
480,Fe2As2Ca5Al1.5Ti1.5O9,15.0
481,Ga1N1,2.925
482,B5Nb1.8Zr0.2,5.9
484,Sm1Fe1As0.47P0.53H0.09O0.91,10.5
486,Lu5Ir4Si8Ge2,6.6
487,Y0.7Ca0.3Sr1.5Ba0.5Cu2.8Cr0.2O7,41.0
488,Y0.6Pr0.4Ba2Cu3O6.929,45.05
492,Er1Sr2Cu2.85Re0.15OY,47.0
493,Sr1Si1.9Ni0.1,2.3
494,La1.85Sr0.15Cu0.9Mg0.1O4,29.6
496,Bi2Sr1.9La0.1Ca1Cu2OY,85.04
497,Hg0.9W0.1Ba2Cu1O4.2,89.0
499,Sb1.16S5.16Ta2,3.0
500,Sr1.5Ba0.5Y1Cu2.8Ga0.2O6.96,32.0
501,Nd0.1La1.7Sr0.2Cu1O4,35.0
502,La0.95Ce0.05Ru4P12,6.8
507,Al0.22La0.78,4.3
508,Mg0.55Al0.225Li0.225B2,25.6
509,Ru0.97Co0.03Sr2Gd1CuO8,13.0
510,Nb0.75Al0.185Ge0.065,20.26
511,Sm1Ba2Cu2.9Zn0.1O6.83,29.0
512,Ce1Pt0.2Ru1.8,3.4
513,Y0.9Ca0.1Ba1.6Sr0.4Cu4O7.8,85.5
514,Sm1Fe0.94Ni0.06As1O1,9.0
515,Y0.95K0.05Ba2Cu3O6.6,89.4
516,Tl0.5Pb0.5Sr2Ca1Cu2.95Zn0.05O7,73.0
517,Ga0.255V0.745,13.9
518,Mg0.85Na0.15B2,38.0
521,Mo1.75Ru1.25B2,3.7
522,Zr1P1.6S0.4,4.36
523,Ca2Cu1Cl2.25O2,31.0
524,Sr2Cu1C0.85B0.15O5,32.0
527,Au0.28Te0.72,1.96
528,Ca1Si2.2,1.37
529,Hg0.97Tl0.03,4.109
531,Pb1.14Ta2S5.14,3.3
532,Y1Ba2Cu2.745Fe0.255O7.08,53.0
533,Na1Fe0.979Co0.021As1,19.4
535,Sm1Fe0.89Ir0.11As1O1,18.3
536,Th1.2Er0.8C3,7.0
537,Er0.03La0.97,4.49
538,Y1Ru1B4,1.38
541,Sm0.9Pr0.1Ba2Cu3O6.75,36.3
542,Ce1Fe1As0.55P0.45F0.05O0.95,15.0
543,Ba0.788K0.212Fe2As2,19.0
544,Y1Ba2Cu2.84Fe0.16O6.959,53.0
546,Y1Ba1.8La0.2Cu4O8,44.0
547,Y1Ba1.9Sr0.1Cu4O7.9,78.0
549,Pd2Se1,2.2
550,Rh0.06Zr0.94,5.8666666670000005
551,Ce1Fe1As1H0.065O0.935,41.1
553,Ir2Zr1,4.1
556,La1Ni1B1N1,1.96
557,Ce1Co1In4.94Sn0.06,1.565
558,Y1Pd2Pb1,4.13
561,Ca10Pt4.6Fe9.4As18,22.5
562,Li0.99Fe1.01As1,14.0
563,Nb2Pd0.67Se5,1.2
564,Bi2K1,3.575
565,Dy1Ba2Cu2.94Zn0.06O6.9,62.0
568,Lu1Ni1B0.8C1,2.6
573,B2.34Nb1,9.16
574,Co7.32Ga25V67.68,5.03
576,Hf1V2H0.4,8.42
577,La1.5Nd0.5Ca1Ba2Cu5O11.583,79.0
578,Hg1Ba2Cu1O4.052,82.0
579,Cu0.05V0.95,3.85
582,Fe1Te0.54Se0.45S0.01,13.3
583,C8Rb1Hg1,1.41
585,Ho1Rh3Ru1B4,6.35
586,Y0.9Fe0.1B6,3.3
588,Ir3La7,2.28
589,Mo0.52Re0.48,11.1
590,Mo0.059Zr0.941,4.15
592,N0.92Nb1,16.5
593,Cs0.005W1O3,5.9
597,Fe1.04Se0.33Te0.67,14.1
598,V3Ga0.9Sn0.1,10.7
599,Tm1Ba2Cu3O6.72,64.5
600,Ca0.81Nd0.19Fe1As2,11.0
602,Y1La0.2Ba1.8Cu3O7.49,90.4
603,Sn0.6175Pb0.3325In0.05Te1,1.6
604,Sr0.88La0.12Cu1O1.97,42.4
605,U1Ir2Si2,1.1
607,Bi2Sr1.6Nd0.4Cu1O6.32,23.1
608,Ba1Fe1.8Ni0.2As2,6.4
609,Lu2Ir3Si4.9Ge0.1,7.74
611,Ti1.38V1.62Sb1,1.49
615,Hg0.5In0.5,3.81
616,Mo0.025Ti0.975,1.8
617,V2.7Mn0.3Si1,11.9
619,La3Pr0.3In1,6.2
622,Hg0.8Mo0.2Ba2Cu1O4.4,74.0
623,Ba1Pb0.78Bi0.22O3,10.3
624,Tl0.5Ba2Ca0.3Be1.7Cu3.5O7.685,115.0
627,Ba0.5K0.5Fe1.9Cu0.1As2,22.29
628,Ag0.1In0.9Te1,1.2
633,Hg0.5Bi0.5Sr2Ca2Cu3O8.35,107.0
634,Nb3Sn0.92Al0.08,17.9
636,Ga26.5V73.5,13.6
638,Ba0.65K0.35Fe2As2,38.0
639,Eu1Pt1Si3,3.7
640,Tm1Ir3.6Rh0.4B4,1.48
644,Y0.9Pr0.1Ba2Cu3O6.965,85.0
645,Fe1Te0.57Se0.43,15.0
646,Ce1Bi1S2F0.9O0.1,6.855
647,Y1Ba2Cu2.79Zn0.21O6.97,14.2
649,Cs2Cr3As3,2.025
650,Nd1.7945Y0.0555Ce0.15Cu1O4,19.0
652,Sr2Mg0.3Ti0.7Fe1As1O3,36.7
659,Bi1Pb1Sr2Y0.65Ca0.35Cu2O8,76.0
660,Nb0.95Mo0.05C1,12.1
661,La1.85Sr0.03Ca0.066Ba0.054Cu1O4,24.0
662,Pb0.5Sr2Ca0.5Nd0.5Cu2.5O7,60.0
663,Ca1.9K0.1Cu1Cl2O2,18.0
664,Ba0.47K0.53Bi0.979Pr0.021O3,4.5
665,La1Fe0.8Zn0.2As1F0.15O0.85,25.5
668,C1.45Y0.9Zn0.1,13.0
670,Hf0.36Nb0.62Zr0.02,7.75
671,Sr0.42K0.58Fe2As2,36.0
672,Co35.38Zr64.62,2.67
674,Ce1Rh0.07Co0.93In5,1.89
675,Ho0.3Lu0.7Ni2B2C1,13.3
676,C1.45Cr0.1Y0.9,12.4
677,Al0.75Ge0.25Nb0.003,20.7
678,W5Si1B2,5.8
679,Ca0.4Ba1.15La1.45Cu3O7.12,7.6
681,Y1Ba2.01Cu2.81Ni0.19O6.7,65.0
682,Hg0.5Fe0.5Sr2Y0.6Ca0.4Cu2O6.7,46.0
683,C1Rh1,1.6666666669999999
684,Y1Ba2Cu2.985Zn0.015O6.95,86.0
685,Ni0.011V0.989,3.82
686,Yb3Co4Sn13,2.5
687,La1Ba1.75Ca0.25Cu3O6.951,80.0
689,Bi2Sr2Ca1Cu2I0.69O8.242,53.1
690,As0.15Nb3Sn0.7Tl0.15,17.98
692,Mo0.202Zr0.798,5.25
693,Y1Sr0.4Ba1.6Cu2.5B0.5O7,35.0
694,Ta0.6Mo0.4C1,8.67
696,Nb0.1Ti0.9N0.98,6.48
697,Ba1Fe1.75Co0.25As2,22.0
698,Fe2As2Sr4Mg0.4Ti1.6O6,28.0
699,Y1Ba2Cu2.95Fe0.05O6.6,26.2
702,Tl1Sr2Ca1Cu2O6.85,24.0
703,Sr1Pt2.1Pd0.9P1,5.78
704,Li2Mo15Se19,2.6
705,Nd1.83Ce0.17Cu1O4,12.8
706,Lu0.9Gd0.1Ru1B2,6.4
707,Bi1.6Pb0.4Sr2Cu3Ca2O1013,102.0
708,Nb0.8Pd0.2,1.98
709,Y1Ba1.8La0.2Cu3O6.95,78.0
710,Er5Os4Si15,5.5
711,Cr34.9Ga25V40.1,5.48
712,Y1Ba2Cu2.91Zn0.09O6.83,45.0
713,Y0.9Ca0.1Ba2Cu2.9Co0.1O6.76,57.5
716,Nd1.85Ce0.15Cu0.997Ni0.003O4,15.65
717,La0.99Nd0.01,4.915
718,Yb1Ba1.6Sr0.4Cu3O6.88,80.2
719,La1.8Sr0.2Cu0.65Ni0.35O4,8.0
720,As0.15Nb3Pb0.15Sn0.7,18.05
721,Sn0.057V0.943,1.6
722,Mg4Ni6B2,4.0
723,La1.73Sr0.27Cu0.94Co0.06O4,34.0
724,La1.5Ba1.1Ca0.4Cu3O7.05,55.0
725,Mn0.05Rh0.04Ti0.91,2.4
728,Ca0.1O3W1,1.4
729,Y0.65Pr0.35Ba2Cu3O6.6,21.5
731,Nd1.847Ce0.153Cu1O4,22.5
732,Eu0.6Pr0.4Ba1.5Sr0.5Cu3O6.89,34.0
733,La0.1Ce0.9Ru2,7.194
737,Na0.66Zr1N1Cl1,14.5
738,Fe0.02Te0.85Se0.15,12.7
739,Nd1.4Cu1O4,27.85
740,Ce1Rh0.3Co0.7In5,1.42
741,Al13Os3.2Ru0.8,4.0
742,La1Fe1As1H0.42O0.58,20.3
744,Gd1Ba2Cu3O6.969,91.0
745,La1.5Yb0.5Ba1.5Ca1Cu5O11.785,76.0
746,Y1Ba2Cu2.955Zn0.045O7,70.1
748,Nb2.1Zr0.9Sn1,17.7
749,Bi1.8Pb0.2Sr2Cu1OY,15.2
750,Mo0.85Pt0.15,8.8
751,Hg0.8Nd0.2Ba2Cu1O4.3,77.0
752,Sn1.08Eu0.1Mo6.35S8,10.9
753,La2.9602Gd0.0398In1,6.04
754,Lu1Mo6S8,2.2
757,La1.9Sr0.1Cu0.9925Zn0.0075O4,14.865
763,Ho1Ni1.95Co0.03B2C1,4.51
764,Y1Ba2Cu3F0.825O,90.5
768,Y1Ir1.5Os0.5,2.4
769,La1.775Sr0.225Cu0.995Ni0.005O4,21.0
770,La1.798Nd0.052Ca0.15Cu1O4,31.6
771,Nb0.04Ta0.96,4.47
772,Y0.4Pr0.6Ba1Sr1Cu3O8.9,24.1
775,Sr2Ru1O4,1.290384615
778,La1.05Ca0.15Nd0.8Cu1O4,24.5
781,Hf1Ru1As1,3.193333333
782,Tl1.75Ba2Cu1.2O5.98,26.0
785,C0.96Nb1,9.8
787,La1.8Sr0.2Ca1Cu2O5.98,60.0
788,Fe1Te1,1.5
789,Y5Ir4Ge10,2.76
790,Bi2Sr2Ca1Cu2O8.291,89.1
791,Y0.8Sc0.2Ba2Cu4O8,87.0
795,Y1Ba2Cu2.89Al0.11O7,82.0
796,Ni2Nb1Sn1,3.15
797,Eu0.48K0.52Fe2As2,30.0
798,Eu2.667Ce1.333La1.333Ba1.333Sr1.333Cu6OY,28.5
800,Ba0.5K0.5Fe1.88Zn0.12As2,33.5
802,Bi2Sr1.6Eu0.4Cu1O6.301,12.5
804,Bi1.7Pb0.3Sr2Ca0.8Y0.2Cu1.94Zn0.06O8,54.4
805,Th7Fe1.86Co1.14,1.07
806,Nb2.34Zr0.66Sn1,17.7
808,Ca0.2Ba1.55La1.25Cu3O7.07,46.1
809,Gd0.45Ca0.4Hf0.15Ba2Cu3O7.08,71.9
810,Mg1C0.853B0.072Ni3,6.76
812,Fe1.02Te0.5Se0.1S0.4,8.45
815,Pd0.67Se0.33,2.2
816,Sr3.1Ca5.9Bi0.4Y0.3Pb0.3Cu16.7O29,80.0
817,Hf2Rh1,1.72
818,Ba1Fe1.82Ni0.18As2,14.15
819,Pb1Mo6Se7.55,5.0
821,Al0.5Mo5S6Sn1,14.2
822,Ba1.6Sr0.4Yb0.75Ca0.25Cu3O6.68,74.0
823,Pr1Fe1As1F0.1O0.9,43.5
824,La1.81Sr0.19Cu0.94Ni0.06O4,26.4
825,Ta1S2,1.0429
828,Y1Ba2Cu2.91Ga0.09O7,83.71
829,Al0.27La0.73,3.82
830,Nb0.35Ti0.15Zr0.5,9.3
831,Gd0.65Ca0.2Mo0.15Ba2Cu3O6.818,84.1
833,Th1Ru2Ge2,1.1
836,Li0.3O3W1,2.2
837,Nb20Ti75Ta5,7.1
839,Ca2Cu1Cl2.5O2,38.0
840,Zr33.3V56.7Nb9.9,5.34
841,Bi1.5Pb0.5Sr1.6La0.4Cu1O6.055,28.4
843,Lu0.25Y0.75Ni2B2C1,14.2
844,Bi4Sr3Ca2.55Y0.45Cu4OY,85.8
845,Pb0.6Cu0.4Sr0.9La1.1Cu1O5.18,31.6
846,Mo0.04Zr0.96,4.47
847,Bi3S3O2,4.3
848,Li1Rh1B1.5,2.5
850,Nd0.9Ca0.05Pr0.05Ba2Cu3O6.95,81.4
851,Eu1Ba2Cu3O6.88,94.0
852,Dy1Ni2B2C1,5.033571428999999
853,Ge3Y1,2.35
855,Dy1Rh3.2Ir0.8B4,1.78
856,Bi2Sr2Ca1Cu2O8.234,84.0
857,Rh0.08Ti0.92,3.5
860,Th1Ir1Os1,3.61
861,V3Ga0.78Sn0.22,6.9
862,B2Os1,1.5975
864,La1.84Sr0.16Cu0.97Zn0.03O4,7.85
867,Ba1Cu0.4Si1.6,2.11
868,Ta0.05Mo0.95C1,11.8
869,Nb2Se3,2.3
870,Cu0.01Ta1S2,3.05
872,Mg0.989Cu0.011B2,38.05
873,In0.85Pb0.15,5.1
874,Au0.7Nb3Pt0.3,12.5
878,B5Hf0.2Nb1.8,3.6
879,Mo0.05Tc0.95,10.8
880,Pb1Te1Yb1S1,5.93
881,Pr0.8Sr0.2Fe1As1O1,14.6
882,Mg1Al1Si1,6.0
883,Nd0.9Ca0.1Ba0.6La0.4Cu3O6.7,54.5
885,Th0.8Sc1.2C3,6.0
887,Nb75Ga10Al15,17.2
888,Nb2.85Zr0.15Sn1,18.1
889,Th1Ir0.4Os1.6,3.56
890,Lu1Ni1.8Co0.4B2C1,2.6
891,P1Pb1,7.8
892,Bi0.5Pb0.31Sn0.19,8.5
893,Ho0.7Lu0.3Ni2B2C1,8.72
894,Y1Ba2Cu3H0.32O6.91,91.25
896,Y1Ba2Cu2.919Zn0.081O6.75,20.0
897,Na0.28Pb0.72,7.2
898,Y0.15Dy0.85Ni2B2C1,4.3
900,Yb1Ba2Cu3O6.97,88.0
901,Ca1Al0.5Ga0.5Si1,3.73
902,Ba2Sn3Sb6,3.9
903,In0.087Pb0.913,7.035
904,Nb79.2Sn5.2Al5.2Ge10.4,10.9
905,Mg0.94Al0.06B2,37.0
906,Ir3Y1,3.5
907,Y0.95Ba1.95Ca0.1Cu4O8,80.0
909,Bi0.1In0.9,5.05
910,Pb1Sr0.8Ba1.2Y0.7Ca0.3Cu3O8.41,42.0
911,V0.75Ge0.025Al0.225,11.2
912,La1.5Sm0.3Sr0.2Cu1O4,17.0
913,Ho1Sr0.4Ba1.6Cu4O8,68.1
914,La0.25Sm0.75Ba1Ca1Cu3O7,65.0
915,Ba0.14O3W1,1.725
917,La1Fe1As1O0.7,28.4
918,Bi1.6Sr0.4Yb1Cu3O6.817,55.0
920,Er1Rh4B4,7.795
921,Nb0.6Rh0.4,4.21
922,Nb0.4Ru0.6,2.5
923,Sm1Fe0.875Ir0.125As1O1,16.5
924,Li1Pb1,7.2
927,Ba1Fe1.44Ru0.56As2,15.0
930,Re10Zr90,4.12
931,Os0.113Re0.887,1.79
932,Sr2Cu1C0.96B0.04O5,7.0
933,Pb0.95Tl0.05,3.5275
936,Tm0.5Pr0.5Ba2Cu3O6.64,36.0
937,K0.33Ta1S2,3.8
939,La1.85Sr0.15Cu0.984Zn0.016O4,19.0
940,Sn0.24Eu0.8Mo6.35S8,6.0
942,Mo0.8Hf0.2C1,11.4
944,Nd0.6Ca0.4Ba0.6La0.4Cu3O6.83,84.0
945,Al0.33Ge0.67,1.75
946,Lu4.95Sc0.05Ir4Si10,4.5
947,Y1Ba2Cu3.84Zn0.16O8,31.5
948,Ca10Ir4Fe10As18,17.35
951,Zn1Tl0.78Ba1Cu1O4.5,81.0
953,Tm1Th3.4Ru0.6B4,8.3
955,Fe0.5Ba2Gd1Cu2.5O7.45,72.0
958,Bi2Sr2Ca1Cu2I0.1O8.21,83.9
959,Hf0.32Ta0.68,6.68
960,Fe1Se0.8S0.2,10.015
961,Pd49.75V0.25Sb50,1.13
963,La1.85Sr0.15Cu0.993Ni0.007O4,32.6
965,Gd1Ba2Cu3O6.98,94.2
966,Nb1C0.2N0.7,17.2
968,Zr1Pd2In1,2.19
971,Li1Hf1N1Cl1,25.3
972,Mg0.99Pb0.01B2,35.9
973,Li1Hf1N1Br1,24.1
975,Ca0.3Ba1.45La1.25Cu3O7.172,76.9
976,Ca1Al0.7Ga0.3Si1,4.78
978,Tl2Ba2Cu1O6.01,81.0
979,Y1Ba2Cu2.94Zn0.06O6.68,22.5
981,Ba0.64K0.36Fe2As2,25.6
982,Bi2Sr1.6La0.4Cu1O6.29,30.6
983,Nb3Pt0.02Rh0.98,2.52
984,Nd0.8Pr0.2Ba2Cu3O6.75,9.8
986,Ba1Fe1.838Co0.094Cu0.068As2,5.3
988,Nb3Al0.75Ge0.25,19.8
990,Tl1Sr1.5Ce0.5Ca1Cu2O7,5.0
993,Fe1Sr2Eu1Cu2O7.51,22.0
994,Be17Nb2,1.47
998,Nb1C0.5N0.47,17.4
999,Er0.97Tm0.3Rh4B4,9.03
1000,Y2Dy3Os4Ge10,2.86
1001,Nd1.86Ce0.14Cu1O4,22.9
1002,N1Th1,3.3
1003,La1.842Nd0.008Sr0.036Ba0.114Cu1O4,31.7
1004,Zr33.3V59.25Nb7.35,6.3
1005,Lu2Ir3Si4.75Ge0.25,6.2
1006,Hf1V2H0.5,7.33
1007,Y0.4Yb0.6Ba2Cu3O6.93,91.1
1009,Y1Ru4B4,1.4
1010,Nb3Al0.96Ge0.04,19.8
1012,Ba0.8Rb0.2Ti2Sb2O1,6.19
1014,Eu0.65La1.2Ce0.15Cu1O4,11.0
1015,La1.882Ba0.118Cu0.99Ni0.01O4,12.7
1016,Nb2S2C1,7.6
1018,Ca0.34Na0.66Fe2As2,34.0
1020,Y1Ba2Cu3O6.838,84.8
1021,Sm0.7Pr0.3Ba2Cu3O6.85,4.4
1023,Re24Zr5,3.875
1026,Nd1.35La0.5Ce0.15Cu1O4,19.1
1027,Y2Br1Cl1C2,3.85
1028,La1.937Sr0.063Cu1O4,11.7
1030,Mg1B1.9C0.1,32.84363636
1031,Lu3Rh4Ge13,2.3
1032,Ba0.7K0.3Bi1O3,29.9
1033,Y0.8Pr0.2Ba2Cu3.975Fe0.025O8,46.0
1034,C0.46W0.54,9.0
1035,Y1Ba2Cu3O6.729,56.8
1036,Mg0.95Al0.025Li0.025B2,37.0
1037,Cr0.1Ti0.3V0.6,5.6
1038,Nb0.2V0.8,4.03
1040,Mo6Se7S1,4.48
1041,La1.1Ba1.5Ca0.4Cu3O7.123,76.0
1042,Nd1.85Ce0.15Cu0.995Mn0.005O4,22.1
1043,Zr1Ru1P0.85B0.15,6.4
1045,Y2I0.4Br1.6C2,5.8
1046,Sc0.8Y0.2Ni2B2C1,14.8
1047,Ge0.5Nb3Sn0.5,11.3
1048,Ba2Bi2Sb1,3.92
1049,Y1Ni1.82Pd0.18B2C1,11.8
1050,Sn0.927In0.061Te1,1.8
1051,Be2Nb3,2.3
1055,Y1Pd4B1C0.2,21.0
1058,Hg1Ba2Cu1O4.34,59.0
1059,S1Y1,1.9
1061,Mo2Zr1,2.7430000000000003
1062,Y1Ba2Cu2.9Ni0.1O6.87,55.0
1063,Y1Ba2Cu2.9Fe0.1O6.929,71.0
1064,Ba1Fe1.7Zn0.08Co0.22As2,8.77
1065,Al0.8Ge0.2Nb3,20.375
1066,Tl2Ba2Cu1O5.929,70.0
1067,Nb2.919Hf0.081Al1,16.5
1069,Sm0.9Pr0.1Ba2Cu3O6.85,42.2
1070,Os0.1W0.9,1.5
1071,La1.83Sr0.17Cu0.65Ni0.35O4,13.5
1072,Mg1C1Ni2.95Co0.05,7.42
1073,Mg1B1.4C0.6,19.45
1074,Mo3S4Sn0.6,14.2
1075,Sc4Rh6Sn19,3.2
1076,La1Fe1As0.7P0.3O1,9.743333332999999
1077,In0.05Sn0.95,3.625
1078,Sm0.1La1.7Sr0.2Cu1O4,32.0
1079,Rh1Zr1,1.35