,composition,Tc
9305,Ho4Os6Sn19,1.4
9306,Ca1.7Na0.3Cu1Cl2O2,27.6
9307,Nd1Bi1S2F0.7O0.63,5.24
9309,Li0.95Zr1N1Cl1,13.4
9310,Bi3.95Cu0.05S3O4,2.595
9311,Y1La0.2Ba1.8Cu3O7.46,89.8
9313,Ca0.4La0.6Ba1.35La0.65Cu3O7.15,80.0
9314,Nb0.5Sn0.25Ta0.125V0.125,12.2
9315,Na0.75Co0.9975Ga0.0025H2.6O3.3,3.98
9318,Y1Ba2Cu3H0.14O7,92.5
9319,Ca8.44La1.56Pt3Fe10As18,32.3
9320,Mg0.8Li0.2B2,34.0
9321,La1.78Sr0.22Cu0.95Ni0.05O4,2.05
9322,Nb3Al0.9Ga0.1,18.5
9323,Nb0.75Al0.175Ge0.075,17.9
9324,Hg1.4Tl0.6Ba2Y0.5Ca0.5Cu2O7.74,84.0
9327,Ge1La3,3.7
9328,Nb0.7W0.3C1,13.2
9329,Ba2Ca1Cu2F2.2O3.8,40.0
9331,Y1Sr2Cu2.8V0.2O6.5,16.0
9332,Y0.75Gd0.25Ni2B2C1,4.52
9334,Sr1Ga0.7Si1.3,3.17
9335,Yb1Mo6Se8,6.0
9336,Ba1Fe1.24Ru0.76As2,7.1
9337,Nb3Al0.985Si0.015,18.6
9338,Y0.8Pr0.2Ba2Cu3O7.4,59.8
9339,Hg1Ba2Cu1O4.049,70.0
9340,Sr1Fe1.68Zn0.12Co0.2As2,6.22
9341,Ho1Sr0.6Ba1.4Cu4O8,68.3
9344,Ni20Zr80,3.47
9345,La1.8Nd0.05Ca0.074Ba0.076Cu1O4,2.05
9347,Zr1Ru1As1,8.716666667
9348,K0.1W1O2.9F0.1,2.1
9350,Sm1Fe1As1H0.22O0.78,50.0
9351,Zr0.8Ni0.2,3.59
9353,Yb0.85Pr0.15Ba1.7Sr0.3Cu3O6.91,80.0
9354,Gd1Ba1.85Pr0.15Cu3O7.09,55.8
9356,N1Nb1,13.54416667
9358,Ce1Ru2Sc1,6.2
9359,Sm1Fe1As1F0.15O0.85,44.48888889
9360,Rb0.8Fe2Se1.75Te0.25,22.2
9361,Sr1.84Ba0.16Cu1O3.4,75.0
9365,Ba1Pt2As2,2.2625
9366,In0.82Te1,1.04
9367,Hg0.75Mo0.25Ba2Cu1O4.51,40.0
9369,La1.85Sr0.15Cu0.96Ti0.04O4,26.1
9372,Ta0.84W0.16,1.86
9374,Er0.8Gd0.2Rh4B4,4.41
9376,Nd1Ba2Cu2.9Ga0.1O6.61,38.0
9377,Y0.85Pr0.15Ba2Cu3O6.5,35.8
9383,Na1Fe0.977Co0.023As1,15.7
9385,Nb98O2,7.33
9387,La0.9837Ce0.0163Sn3,4.33
9389,Nd1Ba2Cu3O6.95,89.0
9390,Ba1Fe1.85Pt0.15As2,23.4
9391,Cu0.8Zn0.2Ir2S4,3.32
9393,Li1.04Ti1.96O4,12.1
9394,Pb0.196Sn0.784In0.02Te1,1.68
9395,La6Zn1Sb15,3.74
9396,Y1Ba2Cu3.84Ga0.16O8,71.25
9397,Nd1.8Pr0.2Ba4Cu7O14.587,56.0
9398,Gd0.001Th0.999,1.11
9399,Yb1Ba1.6Sr0.4Cu4O8,80.0
9400,Y0.4Lu0.6Ir4B4,3.07
9401,Eu0.7Na0.3Fe2As1.4P0.6,25.2
9402,Ti0.496Zr0.504,1.8
9403,Cd0.04In0.96,3.2595
9404,Pr1.48Y0.37Ce0.15Cu1O4,9.5
9405,Bi2Sr2Ca0.6Pr0.4Cu2O8.316,57.0
9406,La0.98Nd0.02Pt1Si1,3.42
9409,Pd0.55Cu0.45H0.7,16.6
9410,Y3.25Dy1.75Os4Ge10,5.2
9411,La1Ru2.925Fe0.075Si2,3.12
9412,Cr1Ti3,3.7
9414,V3Si0.6Sn0.4,9.7
9415,Cr0.03Sc0.97,3.1
9416,Y1Ba2Cu2.88Zn0.12O7,49.80666667
9417,K0.4Sr0.6Fe2As2,36.5
9418,La1Pt2.1B2.4C1.2,10.35
9419,Pr1Fe1As0.9P0.1F0.1O0.9,35.2
9421,Nb0.25Ti0.75N0.98,10.5
9422,Hg0.8V0.2Ba2Cu1O4.3,93.0
9424,Nb3Al0.15Ge0.85,7.4
9425,Pu1Co0.5Rh0.5Ga5,15.5
9428,Lu4.93Yb0.07Ir4Si10,1.5
9431,Eu1Ba2Cu3S1O6,85.0
9432,Cu0.75W0.25Sr2Y1.3Ce0.7Cu2O8.81,31.5
9433,Sm1Ba2Cu3O6.65,32.8
9434,Ce1Fe0.88Co0.12As1H1,23.0
9435,Nb3Si0.27Sn0.73,13.9
9437,Gd1Ba2Cu2.73Fe0.27O6.98,40.0
9439,Pd49.75Cu0.25Sb50,1.56
9441,Bi2Pd3,3.7
9443,Bi3Ni0.9Fe0.1,4.06
9444,Nd1.85Ce0.15Cu0.998Ni0.002O4,17.3
9445,Hg0.92Ba2.05Cu1.03O4.103,63.6
9446,Ca1Cu0.33Si1.67,2.3
9447,Nb0.8W0.2C1,13.2
9448,Tl0.5Pb0.5Sr2Ca1Cu2O7,81.8
9449,Lu0.4Dy0.6Ni2B2C1,4.3
9450,K0.75Fe1.68Se2,31.0
9451,La1.89Na0.11Cu1O4,16.0
9452,Th0.99975U0.025,1.182
9453,Nb3Sb0.15Sn0.7Tl0.15,16.04
9455,La1.725Nd0.15Sr0.125Cu1O4,12.5
9456,Sm1Fe1As1O0.8,40.1
9457,Fe1Se0.492Te0.328,12.7
9459,Zr23V45.5Nb31.5,5.42
9460,Y1Ba2Cu2.982Zn0.018O6.9,89.2
9461,Si0.4W0.6,2.84
9462,Cu0.06Ti1Se2,2.396666667
9463,Tl2Ba2Cu1O5.989,10.0
9464,Li0.8Fe1.2Se0.72S0.28H1O1,35.0
9465,Cu0.15In0.85,3.75
9466,La1Ru2Si2,3.5
9467,Y2Pd0.9Pt0.1Ge3,2.68
9471,Ga23.6V76.4,14.6
9473,Hf1Ru4P2,9.5
9477,Ca0.5Fe2Se2,40.0
9479,Rh20Zr80,3.72
9481,Ba1Fe1.898Co0.102As2,18.6
9482,Y0.7Ca0.3Ba1.3La0.7Cu3O7.16,73.0
9483,Au0.93Pd0.07Ga2,1.7730000000000001
9486,Eu1Ba1.9Pr0.1Cu3O6.75,73.0
9487,Pb1.14Nb2Se5.14,3.4
9489,Li1Hf0.7Zr0.3N1Cl1,22.6
9490,Nd1.85Ce0.15Cu0.998Co0.002O4,15.45
9491,H3.63Th1,8.35
9493,Mo5.8Ru0.2Se8,6.21
9494,Mo0.1Nb0.765Pd0.135,1.53
9496,Y1Ba2Cu3.97Ni0.03O8,70.4
9497,Fe1.12Se0.03Te0.97,6.5
9498,Hg5Tl2,3.86
9500,Y1.9Dy0.1Fe3Si5,2.75
9501,Ba0.6Rb0.4Fe2As2,34.0
9502,Y2I1.75Br0.25C2,10.35
9504,Sr1.3K0.7Cu1C1O5,20.0
9505,Nb0.95V0.05N0.85,7.12
9506,Au0.1Zr0.9,2.78
9507,Mg2Pb1,5.6
9508,Y1Cu2.98Zn0.02O7,84.5
9510,Bi1Cu0.9S1O1,5.8
9511,Cu0.12Ta1S2,1.82
9512,La1.85Ca0.15Cu1O3.942,19.0
9513,Cd0.9Ge0.1,1.7
9514,Bi2Sr1.6Ca1.4Cu2O8.16,77.6
9515,Nb3Sn0.73Ge0.27,8.2
9516,W2Zr1,1.08
9517,La9Br5B3C6,6.0
9518,Sr2Ca3Cu4F2O8.8,72.0
9519,La1Fe1As0.15P0.85O1,11.67
9520,Zr2Co0.5Ni0.5,3.11
9521,Y0.2La0.8Ba2Cu3O7,81.0
9523,Ce1Fe1As0.7P0.3F0.05O0.95,18.15
9524,Si10.9V3Al0.1,14.05
9529,Nb1B0.2Rh3,6.4
9531,Y0.75Pr0.25Ni2B2C1,7.7
9532,Cr2Re3B1,4.8
9533,Ir0.41Nb0.59,9.8
9534,Pd0.95Te2,1.89
9535,Ho0.15Lu0.85Ni2B2C1,15.1
9536,La1Ba1Ca1Cu2.7Ni0.3O6.848,28.0
9537,Tm0.7Pr0.3Ba2Cu3O6.95,64.1
9538,Tl1Sr1.8Cr0.2Cu1O5,43.0
9540,Pu1Co0.9Fe0.1Ga5,13.5
9541,Tc0.7V0.3,7.355
9542,Mg0.98Cr0.02B2,35.3
9543,Tl2Ba2Cu1O5.963,53.0
9544,Nb2.88Ti0.12Al1,15.0
9547,Cu0.5P0.5Sr2Ca1.8Y0.2Cu3O9.25,70.0
9548,Ir0.93Te2,4.7
9549,Y1Ni1.98Co0.02B2C1,14.3
9550,C2Y1,3.895428571
9551,Er0.5Pr0.5Ba2Cu3O6.82,34.4
9552,Li0.28Cs1Ca2Nb3O10,5.51
9553,Ca4Al2Fe2As2O6,28.2
9554,Mo0.55Pt0.05Re0.425,11.25
9556,Fe0.98Ni0.02Se0.82,11.3
9558,Bi1.6Pb0.4Sr2Ca2Cu3O10.11,105.3
9559,Ba1Ti2Bi2O1,4.6
9561,La1Bi1S2F0.2O0.8,7.11
9562,Nb0.5Hf0.5N0.98,7.33
9563,Y1Ba2Cu2.98Zn0.02O7,85.0
9564,Cu1Rh1.95Se4Sn0.05,2.7
9565,Ca10Pt5.8Fe8.2As18,33.65
9566,Au0.167Pd0.166Te0.667,4.6
9567,Mo6Se6.5Cl1.5,6.49
9568,La2.9579Ce0.0421In1,7.11
9570,Y0.6Pr0.4Ba0.8Sr1.2Cu3O6.89,49.0
9571,Nb3Al0.9In0.1,18.3
9572,Nd1Ba1.8Sr0.2Cu3O6.927,82.0
9574,La98Lu0.815Tb1.185,1.248
9575,Y0.6Pr0.4Ba2Cu3O6.98,44.1
9577,Ti0.63V0.27Al0.1,3.62
9578,Y1.2Ba2Cu3O6.98,93.4
9580,Sn0.961In0.027Te1,1.85
9581,Tl1C1Sr2Ba2Cu2O10,68.2
9583,La3Ni1,3.6
9585,Ag0.7Mo4Se5,5.96
9589,Ho1Ni1.99Co0.02B2C1,4.8
9590,Nb0.86Rh1.04,3.76
9595,Bi2Sr2Ca0.9Pr0.1Cu2O8.234,75.8
9596,Tm1Ni1.97Co0.06B2C1,8.7
9598,La0.2Ce0.8Ru2,4.227
9600,Pd5Se2,2.3
9601,Tl1Sr1.2La0.8Cu1O5,27.0
9602,Sc1Mo6S7,2.67
9603,Yb1Ba2Cu3O6.9,92.8
9605,Tm1.6Pr0.4Ba4Cu7O14.722,68.0
9606,Ba1.6Sr0.4Yb0.65Ca0.35Cu2O6.4,61.0
9607,Mg1B1.88C0.12,32.9
9609,Li1Fe3Se2O2,42.8
9610,Nd1Fe1As1O0.7,53.7
9611,La1Pt0.6Ni0.4Si1,2.63
9612,Rh0.94Se2,5.19
9613,Ge3Rh5,2.12
9614,Hg0.9Re0.1Ba2Cu1O4.35,90.5
9615,Mo0.66Re0.34,11.8
9616,Re0.92V0.08,6.8
9619,Lu1Ba1Sr1Cu3O6.94,54.0
9620,Pr0.85La1Ce0.15Cu1O3.95,19.0
9621,La1Ni0.9Cu0.1C2,3.24
9622,Y0.47Er0.53Rh4B4,9.5
9623,C2Li1,1.9
9624,Eu0.85La1Ce0.15Cu1O4,15.0
9625,Ba0.19K0.81Bi1O3,8.4
9626,Lu0.8Ca0.2Ba2Cu3O6.68,78.0
9627,Ir0.34Nb0.66,2.25
9629,Y0.81Th0.19C2,3.52
9631,Ba0.47K0.53Bi0.99Pr0.01O3,6.4
9632,Y1La0.2Ba1.8Cu3O7.62,87.9
9633,Ce1Co1In4.92Sn0.08,1.22
9634,Y0.5Pr0.5Ba2Cu4O8,50.5
9635,Ba2Ti2Fe2As4O1,20.125
9636,La1.82Ba0.18Cu1O4,23.1
9637,Ca0.3Ba1.45La1.25Cu3O7.11,65.3
9642,La2Cu0.985V0.015O4.021,40.0
9644,La1.909Ce0.091Cu1O4,30.3
9645,Y0.5Ca0.5Ba1.5La0.5Cu3O6.96,82.5
9649,Ba1Pd0.4Si1.6,1.11
9650,Tc0.4W0.6,7.18
9653,Pb1Tl0.27,6.43
9654,Ba1Fe1.84Co0.16As2,22.9
9655,Bi1.7Pb0.3Sr2Ca2Cu3F0.5O9.5,113.0
9657,Pd0.15Zr0.85,4.8
9658,Ga1Sr2Ca3Cu4O10.9,100.0
9659,Nd1.85Ce0.15Cu1O4.014,25.0
9662,Y1Ba2Cu4O7.96,86.0
9663,La1.85Sr0.15Cu0.985Ga0.015O4,13.7
9664,Nb80Si16Ge4,4.7
9666,C0.681Mo1,12.0
9667,Bi1Pb1Sr2Y0.5Ca0.5Cu2O8,85.0
9668,Ti0.33V0.33Zr0.33,6.6
9669,Mg1B1.834C0.166,32.0
9671,Y1.4Th0.6C3.1,17.0
9673,La1Fe0.875Ir0.125As1O1,4.56
9674,Bi0.15In0.15Nb3Sn0.7,18.01
9675,Tm1.2Mo6S8,1.95
9676,Bi3.9Cu0.1S3O4,2.995
9677,Y1Sr2Cu2.7Ti0.3O7.152,23.0
9679,Gd1Re1B1C1,4.0
9681,Fe1Se0.42Te0.58,14.8
9682,Y0.95Ca0.05Ba2Cu2.95Co0.05O6.84,72.5
9685,Nd1Ni0.72Bi2.14,4.2
9686,Nb0.7Ta0.3,6.985
9688,La1Rh1Si3,2.245
9689,Ca1La1Ba1Cu2.97Zn0.03O7,60.0
9691,Nb0.5Os0.5,2.86
9692,Cu1Co1.98Rh0.02S4,2.82
9693,La1.9Sr0.1Cu1O3.997,32.0
9695,Nd0.4Sm0.6Bi1S2F0.3O0.7,5.38
9696,Pu0.9U0.1Co1Ga5,8.4
9697,Sm0.9La0.9Sr0.2Cu1O4,34.0
9698,Ba3Ir4Ge16,6.1
9700,La1Tl1.5Pb1.5,1.75
9701,V0.709Ga0.151Al0.14,9.0
9702,Y2Ba4Cu7O14.92,82.0
9703,Ta0.52Ti0.48,7.86
9705,Y0.75Ca0.25Ba2Cu2.75Co0.25O7,82.5
9706,Fe0.5Ni0.5Zr2,1.85
9707,Nb4Fe1Si1,6.8
9709,Hg0.9Re0.1Ba2Cu1O4.42,94.4
9710,La1.85Sr0.15Cu0.983Zn0.017O4,19.4
9711,Mo3.95Zr96.05,2.53
9714,Nb0.4Re0.6,2.43
9715,V2Zr1,8.346666667000001
9718,Ba1Fe2Se3,11.0
9719,Yb0.5Pr0.5Ba1.7Sr0.3Cu3O6.93,30.0
9722,Nd0.2Sm0.8F0.3Bi1S2O0.7,5.58
9724,Nb3Pt1,9.516428571
9725,Lu4.5Er0.5Ir4Si10,2.74
9728,Nd1Bi1S2F0.2O0.8,5.12
9729,Ga0.1Ge0.9,5.3
9730,Y1Ba2Cu2.79Co0.21O7,22.0
9731,Tl1Sr1.6Cr0.4Cu1O5,48.0
9733,Hf1Pd2Al1,3.66
9735,Pr1Fe1As0.2P0.8F0.1O0.9,8.71
9736,Y1Ba2Cu4Li0.031O8,72.0
9737,Co1La3,4.226666667
9738,Ta0.17Zr0.83,5.28
9739,Pr1Fe1As0.8P0.2F0.1O0.9,29.2
9741,Dy1Ba2Cu2.9Ni0.1O6.74,67.0
9744,Y1.5Th0.5C3,16.7
9745,Y0.8Pr0.2Ba2Cu2.7Fe0.3O7.1,25.0
9748,Re0.83Ti0.17,7.05
9749,Y0.962Ba1.987Ca0.05Cu4O8,91.5
9750,Sr0.1Bi2Se3,2.87
9751,Bi2Sr1.9La0.1Cu1O6.2,12.0
9752,Ba1.6Sr0.4Yb0.85Ca0.15Cu3O6.36,19.0
9753,Na2Rb0.5Cs0.5C60,8.2
9754,Zr1Ru1P0.95B0.05,8.4
9755,Pb0.5Cu0.5Sr1La1Cu1O5.1,31.9
9756,Nb4Co1Si1,6.0
9757,Nb55Rh45,5.13
9758,La1.8Sr0.2Cu0.9928Zn0.0072O4,27.0
9759,C0.026N0.974Nb1,17.2
9760,Cd1Mo6Se8,2.4
9762,Pd0.19Ti0.81,3.08
9765,Pd0.04Ir0.96Te2,2.99
9766,Y1Ba2Cu2.88Ti0.12O6.88,68.4
9767,Bi1.95Sr1.65La0.4Cu1O6.28,32.6
9768,La1Ru2.94Fe0.06Si2,4.58
9770,Y1Ba2Cu2.98Co0.02O6.9,93.4
9771,Nb3Rh0.5Au0.5,6.6
9774,Bi1.6Pb0.4Sr1.8Ca1Nd0.2Cu2O8.11,87.0
9775,Y0.9Cd0.1Ba2Cu3O7,89.9
9776,Li0.8Fe1.2Se0.34S0.66H1O1,18.4
9777,Tl1Sr1La1Cu1O5,32.0
9779,La0.9Pr0.1Pb3,2.58
9780,Ca9.68Ho0.32Pt3Fe10As18,19.5
9781,Yb0.85Pr0.15Ba2Cu3O6.97,86.5
9782,Au0.15Sb0.85,8.1
9783,Nb0.38Zr0.62,8.7
9784,Sc0.5V0.5,7.03
9785,Nb0.7Zr0.3,10.8
9787,Ir0.385Nb0.615,9.7
9788,Nb6Sn5,2.435
9790,Nb99.976O0.024,9.23
9791,Bi2Pd1,3.8233333330000003
9792,La1.83Ca0.17Cu1O4,34.0
9793,La1Rh1Sn1,1.9166666669999999
9794,Ca1Al1.25Si0.75,4.4
9795,La1.85Sr0.15Cu0.98Li0.02O4,36.5
9796,Eu1Ba2Cu2.9Ga0.1O6.74,52.0
9797,Al5Re24,3.35
9798,Gd0.6Ca0.25Mo0.15Ba2Cu3O6.761,83.7
9799,Yb0.95Pr0.05Ba2Cu3O6.9,89.1
9801,Ge2Rh5,2.12
9802,Bi2Sr2.08Ca0.92Cu2O8,95.3
9804,In0.1Sn0.9Te1.01,1.75
9808,La1.891Ce0.109Cu1O4,28.5
9809,Ca0.81Nd0.19Fe1As1.98Sb0.02,24.0
9810,V0.783Ga0.138Al0.079,10.2
9811,Ga1Sr2Tm0.6Ca0.4Cu2O7,51.0
9812,Ce1Rh1In5,1.6522222219999998
9813,Bi0.05Sn0.95,3.93
9814,Nb0.375Rh0.625,2.7
9816,Y0.8Ca0.05Pr0.15Ba2Cu3O6.95,82.7
9818,Pr1Fe1As1O0.7,46.25
9820,Hf1N0.989,6.6
9821,Al1Sr2Ca2Cu3O10.1,76.0
9822,Ce1Co1In4.9945Cd0.0055,2.226
9825,Ca0.3Ba1.45La1.25Cu3O6.96,9.6
9826,Sr1.5Ba0.5Y1Cu2.8Ga0.2O7.14,56.0
9827,Mg0.9Mo5.1S6,2.5
9828,Er1Ba2Cu3O6.85,93.0
9829,Nb3Rh0.05Pt0.95,8.9
9831,Hf0.9Ta0.1V2,9.49
9833,Nb3Rh0.9Au0.1,2.7
9834,Th1Os2Si2,1.1
9835,Sr0.2La1.8Cu0.95Ti0.05O4,21.0
9836,V0.73Si0.23Al0.04,10.4
9838,K0.85Fe2Se1.8,32.6
9840,La0.3Nd0.7Pt2.1B2.4C1.2,4.28
9842,Nd1.4Pr0.6Ba4Cu7O14.541,41.0
9846,P3Sn4,1.24
9847,Y1Ba2Cu0.97Zn0.03O7.95,59.0
9849,Ba0.5K0.5Fe1.92Zn0.08As2,34.3
9850,Ca0.86Pr0.14Fe2As2,32.5
9851,Cu1S1,1.585
9853,Bi6S5O8,2.4
9854,Lu2Sn1C1,5.2
9855,La0.4Pr0.4Ba1Ca1Cu3O7,14.0
9856,Y1Ba1.926Ca0.074Cu4O8,83.3
9858,Ba1Fe2As1.34P0.66,28.575
9859,La0.7Ca0.1Pr0.2Ba1.5Sr0.5Cu3O6.862,40.0
9860,Fe1Se0.828Sb0.092,8.3
9861,Sr1Fe1.85Pd0.15As2,8.7
9863,Pd0.985Ni0.015H0.79,2.8
9864,Bi1Sr0.65Nd0.35Cu1OY,10.21
9866,Mo0.18U0.82,2.115333333
9869,Mg0.9Al0.1B2,34.3
9871,Ce1Fe0.91Co0.09As1H1,23.0
9872,Ca1La1Ba1Cu2.88Zn0.12O7,14.0
9873,La1.76Ba0.24Cu1O4,14.0
9874,Tl0.6Pb0.2Bi0.2Sr1.8Ba0.2Ca2Cu3O9,122.0
9876,Fe1Te0.5Se0.5,14.38
9877,La1.65Nd0.2Ca0.122Ba0.028Cu1O3.99,27.1
9879,Th1Ir1.3Os0.7,2.36
9880,Sm1Fe0.5Ru0.5As1F0.15O0.85,4.26
9881,Y1Ba2Cu2.95Ni0.05O6.93,80.0
9882,Si0.263V0.737,15.8
9883,Bi2Sr2Ca1Cu2O8.27,85.5
9884,Bi1.8Pb0.2Sr2Ca1Cu1.98Fe0.02O8,54.8
9885,Bi4Sr3Ca2.5Tm0.5Cu4O16.52,81.0
9886,Rb1Os2O6,6.318
9889,Eu2Ba4Cu7O14.671,75.0
9890,Y1Ba1.7La0.3Cu3O7.059,61.4
9894,Ba0.6K0.4Bi0.7Pb0.3O3,11.3
9895,Er0.88Ca0.12Ba2Cu2.28Co0.18O6.93,77.5
9896,V2.91Mo0.09Si1,10.4
9897,Y0.6Pr0.4Ba2Cu3O6.66,25.4
9898,Pr0.65Sr0.35Fe1As1O1,16.5
9899,Cu1Mo3S4,10.94
9900,Nb3Sn0.2Sn0.8,15.89
9901,Pr0.6La0.4Os4Sb12,1.5419999999999998
9902,Y1Ba2Cu3O6.894,80.5
9903,Mo6Se7.6,6.28
9904,Tl0.5Pb0.5Sr4Cu2C1O3O7,71.0
9905,Ba1Fe1.89Co0.11As2,23.25
9906,Nb3Ga0.65Al0.35,18.1
9907,Dy1Ba1Sr1Cu3O6.7,29.9
9908,Y1Ni1.9Cu0.1B2C1,13.75
9910,Tc2Y1,8.8
9911,Ca0.6Nd0.4Ba1La1Cu3O7.1,48.6
9913,La0.6Rh4P12,17.0
9914,Nd0.9Ba1.7Ca0.4Cu3O6.801,72.0
9915,Nb2.97W0.03Al1,18.0
9916,Ba1Fe1.42Ru0.58As2,15.6
9918,Cu40Sn60,4.19
9919,Hg1Ba2Cu1O4.055,79.1
9920,Y1Ba2Cu3.98Ni0.02O8,68.8125
9921,Ba0.6K0.4Bi1O2.977,29.0
9925,Sr2Sc1Fe1P1O3,12.0
9927,La1Fe1As1H0.36O0.64,36.0
9929,Os8.33Re91.67,1.876
9930,Y0.8Pr0.2Ba2Cu3O6.6,37.0
9931,Bi1.6Pb0.4Sr2Ca2Cu3O10.07,102.3
9936,Pt1V3,3.005
9937,Sr2Ru0.9995Ti0.0005O4,1.13
9938,Nb1Tc3,10.5
9939,Nb1N1.22O0.18,12.3
9940,Pd0.05Ru0.05Zr0.9,9.0
9943,La0.95Y0.05Ni1C2,2.79
9944,Ba1Fe1.904Co0.096As2,17.1
9947,Y1Ba2Cu2.98Ni0.02O6.94,86.0
9948,Ba1Ta2S5,3.01
9950,Y0.8Ca0.2Sr1Ba1Cu2.7Ga0.3O7,64.0
9953,La0.76Th0.24Pb3,1.46
9954,C1Ta0.45W0.55,10.5
9955,Y0.6Ca0.4Ba1.2La0.8Cu3O7.15,67.0
9957,Rh0.01Ti0.99,1.78
9958,Ce1Fe1As0.9P0.1F0.05O0.95,19.3
9960,Li1.16Ti1.84O4,8.3
9961,Cr0.6Ru0.4,2.1
9962,Nd0.9Pr0.1Ba1Ca1Cu3O7,35.0
9963,Sm1Fe0.875Co0.125As1O1,14.3
9964,Ce1Co1In4.996Sn0.004,2.21
9965,Bi2Sr2Ca1Cu2O8.329,47.3
9966,Er0.85Tb0.15Ni2B2C1,7.225
9967,La1.925Sr0.075Cu1O4,18.26666667
9968,Y1Ba2Cu2.985Ni0.015O6.92,90.5
9969,Y1Ba2Cu2.993Zn0.007O7,84.0
9971,Li2Pd1.5Pt1.5B1,4.13
9972,Nd1.08Ba1.92Cu3O6.17,77.5
9973,La1Ni1P1O1,3.0
9974,Bi0.8Pb0.1S0.1Sr2Ca0.7Nd0.3Cu2O6.95,75.0
9977,La3Ca0.8Cd0.2Ba3Cu7O16.536,76.0
9979,B2Nb0.7,7.96
9980,Tl1Sr1.5Sm0.5Ca1Cu2O7,86.0
9981,Rb1Os1O6,6.3
9982,Ga22.2V77.8,12.3
9983,H0.81Pd1,1.855
9984,Ca1Cu0.25Si1.75,3.1
9985,La1.845Nd0.04Sr0.115Cu1O4,28.5
9986,Sr1Fe1.75Rh0.25As2,21.9
9988,Y1Ba2Cu4O8.045,81.4
9989,Tc0.95V0.05,10.99
9991,Li1.4Zr1N1Cl1,10.0
9993,La1.85Sr0.15Cu0.986Ni0.014O4,27.9
9994,Mo0.95Ti0.05C1,13.5
9996,Y1Ba1.8Cu2.8Co0.2O7.05,70.0
9997,La2.7Gd0.4Ca0.8Ba3.1Cu7O16.537,74.0
10000,Ca10Pt3.53Fe9.47As18,15.8
10001,Sm1Fe0.95Zn0.05As1F0.2O0.8,23.3
10003,Y1.1Ba1.9Cu3O6.65,91.25
10004,Ta1S1.2Se0.8,3.7
10005,La1.4Ba1.5Ca0.1Cu3O6.943,40.0
10006,Hg0.5Fe0.5Sr2Y0.3Ca0.7Cu2O6.65,72.5
10008,C1Ru1,2.02
10009,Y1.6Th0.4C2.7,14.7
10010,La1.83Nd0.1Ba0.07Cu1O4,16.0
10012,Fe9.92Ga25V65.08,4.65
10013,Cr0.01V0.99,4.8
10014,In1Sb1,3.32
10015,Pb1Mo6S7Se1,8.4
10016,La1Pt1.5Au0.6B2C1,10.2
10017,S1.1Zr1,4.5
10018,Ba1Cu0.5Si1.5,2.53
10019,Th1Ir1Ru1,2.53
10020,La1.85Sr0.15Cu0.979Al0.021O4,3.7
10021,Ce1Fe0.9Co0.1As1F0.1O0.9,9.8
10025,Y2Re3Si5,1.76
10026,Ca0.2Ba1.55La1.25Cu3O7.11,59.7
10027,Ga1La3,5.82
10028,La1.62Nd0.2Ba0.18Cu1O4,14.9
10029,Ag0.85Sn1.15Se2,6.175
10030,Ba2Ca3Cu4F1.8O8.2,66.0
10031,Pd34Se11,2.66
10033,La1.85Sr0.15Cu0.96Ni0.04O4,3.2005
10034,Nd1.45Ba1.55Cu3O7.08,26.5
10035,Tm0.5Pr0.5Ba2Cu3O6.95,28.9
10036,Y1Ba1.9K0.1Cu3O6.61,92.7
10038,Sr1Fe1.816Co0.184As2,13.4
10039,V3Si0.99Be0.01,16.6
10040,Al0.2La0.8,4.43
10041,Ge2Rh3,2.12
10042,Ag1Mo4S5,7.9233333329999995
10043,Fe1Sr2Gd1Cu2O7.58,36.5
10045,Mg0.9Li0.05Al0.05B2,37.8
10046,Tl1Ba2Ca0.9Nd0.1Cu2O7,90.8
10047,Pb0.9Yb0.1Mo6Se8,12.3
10048,Al25Nb75,17.5
10049,K0.3O3Re1,3.6
10050,Y0.9Ca0.1Ba2Cu2.9Co0.1O6.84,69.5
10051,Ru8Zr92,3.79
10052,Y1Ba2Cu2.9Zn0.1O6.93,23.0
10053,La1Fe0.99Zn0.01As1O0.85,10.04
10054,La1Bi1S0.6Se1.4F0.5O0.5,3.01
10055,Pr1Fe0.9Co0.1As1O1,14.9
10056,La2.9251Ce0.0749In1,4.42
10057,Th1Ir0.6Os1.4,3.73
10059,La1.8Sr0.2Cu0.96Ni0.04O4,4.925
10062,Rb0.19W1O3,5.5
10063,Dy1Ba1.8Sr0.2Cu3O6.89,84.2
10065,La1Bi1S2F0.7O0.54,4.46
10066,Bi1.5Pb0.5Sr1.4La0.6Cu1O6.118,10.8
10067,Y0.85Ca0.15Sr1Ba1Cu2.5B0.5O7,43.6
10069,Ga1V2.1,6.3
10070,Cr0.05Rh0.04Ti0.91,3.75
10071,H0.19La1.8Sr0.2Cu0.995Fe0.005O4,27.2
10073,Sm1Fe0.85Co0.15As1O1,10.875
10075,Au0.02Nb3Rh0.98,2.53
10077,Mo0.8Pt0.2,4.56
10078,Sn0.8In0.2Te0.9Se0.1,3.7
10079,In0.62Tl0.38,2.76
10080,Bi1.95Sr1.25La0.8Cu1O4,19.0
10081,Nb3Te4,1.746666667
10082,B1Sr2Ca3Cu4O11,110.0
10083,Hg1Ba2Ca1Cu2O6.14,105.0
10084,Y0.74Ca0.16Sr0.6Ba1.5Cu2.78S0.22O7,77.9
10085,Bi2Sr1.6Ca1.2Yb0.2Cu2O8.26,88.3
10086,Y1Ba2Cu3.975Fe0.025O8,64.6
10088,Nb3Rh0.02Au0.98,11.4
10089,Rh0.09Zr0.91,10.1
10092,C0.48Sr2Ca0.4Y0.6Cu2.46O6.97,41.1
10093,La1Pd1Sb2,2.7
10095,Nb2.5Sn1Ta0.5,17.6
10097,Ce1Fe1As1F0.1O0.9,36.33333333
10098,La1.736Nd0.116Ba0.15Cu1O4.03,29.0
10099,Os0.006Re0.994,1.76
10101,Ca9.35La0.65Pt3Fe10As18,19.7
10102,Y1Ni1.85Cu0.15B2C1,13.0
10103,K0.8La0.2Bi1O3,12.2
10105,C13La1,4.8
10106,Ru18Zr82,3.555
10107,Y1Ba1.8K0.2Cu3O6.57,93.0
10109,V3Si0.4Ge0.6,7.2
10114,Sr0.85Pr0.15Cu1O2,39.0
10115,Y1Ba2Cu2.85Zn0.15O6.97,39.0
10116,Mg0.92Li0.08B2,38.0
10117,Nd1Fe0.8Rh0.2As1O1,10.0
10118,Mg0.99Cr0.01B2,36.7
10120,Dy0.85Pr0.15Ba2Cu3O6.9,77.4
10121,Sm1La0.82Sr0.18Cu1O4,37.0
10122,Bi0.5La1Y0.5Sr1Cu2O6.04,30.0
10123,Bi2Sr1.6Ca1.2Eu0.2Cu2O8.26,87.1
10124,Nb3Al0.95Ga0.05,19.2
10125,Pr1.85Ce0.15Cu0.995Ni0.005O4.065,11.92
10126,Pb0.8Sr1Ba1.2Y0.7Ca0.3Cu3O8.35,77.0
10128,Y0.83Er0.17Rh4B4,10.4
10130,Nd1Fe0.9Rh0.1As1O1,15.8
10134,Er0.8Tb0.2Ni2B2C1,5.2
10135,La1.79Sr0.21Cu0.94Fe0.06O4,2.8
10137,Nb3Sn0.2Al0.8,14.6
10138,H1.33N0.33O3W1,3.2
10139,Pb0.6Cu0.4Sr1La1Cu1O5.09,36.7
10140,La2Cu0.965V0.035O4.045,40.0
10141,Ir0.19Rh0.75Se2,7.49
10142,Ce1Co1In4.98Cd0.02,2.14
10143,Y2I1.5Br0.5C2,11.1
10144,Y1Ba2Cu3Cl1O6,72.0
10146,Ce1Fe1As0.47P0.53F0.05O0.95,5.84
10148,Y1Ba2Cu2.6Fe0.4O7,31.0
10149,Ba1Fe1.946Pd0.054As2,12.3
10150,Lu0.94La0.06Ni2B2C1,15.1
10151,Y0.6Ca0.4Sr2Cu2Ga1O7,41.0
10152,Hg0.92Ba2.05Cu1.03O4.087,70.3
10154,Y0.95Ca0.05Ba1.6Sr0.4Cu4O7.8,82.0
10155,Mn0.101Ti0.899,3.0
10156,Sm1Fe1As1H0.43O0.57,45.0
10157,Ag1Mo6S8,7.7
10158,Bi4Sr3Ca2Y1Cu4O16,43.5
10159,Ba0.2Mo1S2,5.7
10160,Si22.5V75,16.1
10161,Nb80Si16B4,4.7
10163,Bi0.343In0.657,5.55
10164,Eu1Ba2Cu2.8Ga0.2O6.63,14.0
10165,In0.4Tl0.6,2.52
10166,Sm1Ba2Cu3O6.55,12.8
10167,Na0.3Co1H2.6O3.3,4.5575
10173,Li0.68Nb1O2,5.15
10174,Ba2Bi1.75Sb1.25,3.51
10175,Gd1Ba2Cu2.64Fe0.36O6.99,21.0
10176,Y1Ba2Cu3O6.876,78.1
10179,La1.85Sr0.15Cu0.9775Zn0.0225O4,8.0
10180,La0.87Th0.13Sn3,6.26
10181,Sr1.5Ba0.5Y1Cu2.8Ga0.2O7.2,61.0
10182,Rh0.04Ti0.96,2.0
10183,Mo0.33Re0.67,5.845
10184,Lu1.8Ba0.2Cu1O4,71.9
10185,Nd1Ba2Cu3O6.82,95.0
10186,Y1Ba2Cu2.91Fe0.09O6.83,60.0
10188,Th1Os2Ge2,1.1
10189,Ir0.9Rh0.1Te2,2.61
10190,Y1Ba2Cu2.902Pt0.098O6.4,81.0
10191,Na0.3Co0.995Mn0.005H2.6O3.3,4.05
10193,Tl1Ba2Ca0.65Y0.35Cu2O7,102.0
10194,Pb0.5Cd0.5Sr2Tb0.6Ca0.4Cu2O7,19.0
10195,La1Fe1As1F0.1O0.9,25.06153846
10196,Ca1Fe0.88Co0.12As1H1,23.2
10197,Sr0.5Eu0.5Fe1.76Co0.24As2,8.45
10199,Sr2Cu1C0.82B0.12O5,30.0
10200,La1.85Sr0.15Cu0.995Ni0.005O4,34.50333333
10202,Ni3Th7,1.975
10203,La0.99Y0.01Fe0.995Mn0.005As1F0.11O0.89,7.5
10204,Ag2Pd3S1,1.13
10205,Sb2Te3,4.942
10206,Ba1Pb0.75Sb0.25O3,3.5
10208,Y1Ba2Cu2.85Ag0.15O7,90.0
10209,Er1Ba2Cu2.85Zn0.06Fe0.09O6.96,46.0
10212,Lu2.5Sc2.5Ir4Si10,7.915
10213,Au0.281Ga0.719,1.587
10216,Y0.75Pr0.15Ca0.1Ba2Cu4O8,76.2
10217,Ca0.3Ba1.45La1.25Cu3O7.05,46.4
10218,Th1.6Sc0.4C3,6.8
10219,V2.67Pd0.33Si1,7.5
10221,Ce0.85La0.15Ru2,5.35
10222,Mg0.95Zn0.025Al0.025B2,38.5
10223,Gd0.91La0.89Sr0.2Cu1O4,13.5
10224,Eu0.7Sr0.3Ba1.6Pr0.1Cu3O6.91,54.0
10226,La1.82Sr0.18Cu1O3.994,34.0
10229,Cu0.7In0.01Nb0.29,9.04
10230,Ba1Pb0.85Sb0.15O3,1.4
10231,Ho0.7Dy0.3Ni2B2C1,5.83
10232,Sm0.8Pr0.2Ba2Cu3O6.65,21.0
10234,Ca8La2Pt3.3Fe9.7As18,29.4
10235,Bi0.0105Pb0.9895,7.2139999999999995
10237,Eu1.2Ba1.8Cu3O7.18,42.0
10238,Ba0.7K0.3Fe1.66Co0.34As2,12.0
10239,Nd1Fe1As1F0.3O0.7,46.0
10241,Ce1Co0.6Ru0.4In5,1.8
10243,Ca8.03Pr1.97Pt3Fe10As18,25.0
10244,Ni24Zr76,3.115
10246,La1.81Sr0.19Cu0.99Zn0.01O4,19.0
10247,Th1Pt2Si2,1.1
10248,Fe0.5Ba2Yb1Cu2.5O7.45,72.0
10249,Hg2K1,1.2
10251,Sn0.1Tl0.9,3.5
10252,Y0.4Pr0.6Ba2Cu4O8,37.875
10253,Th0.9Y0.1,1.51
10255,Rb0.23W1O3,3.25
10256,Y0.95Ca0.05Ba2Cu2.95Ni0.05O6.83,82.0
10257,Ba1Fe1.868Co0.094Cu0.038As2,15.55
10258,Hg8K1,3.42
10259,As1Cr1,1.838
10261,Mg1B1.958C0.042,37.7
10264,Y0.8Pr0.2Ba2Cu3O6.85,45.2
10265,S1.005Sc1,5.37
10266,Y1Ba1.72La0.28Cu4O8,18.9
10267,Lu4.9Sc0.1Ir4Si10,5.835
10268,Na1Fe0.995Co0.005As1,9.81
10269,Er0.55Ca0.3Hf0.15Ba2Cu3O7.05,72.2
10270,Nb25Ti74Zr1,7.4
10271,Pr0.8La0.2Os4Sb12,1.7225
10273,Y1Ba1Sr1Cu3O6.93,80.8
10274,Bi2Sr2Ca0.8La0.2Cu2O8.26,88.45
10275,Nb3Rh2,4.04
10276,Nb0.48Rh0.52,3.76
10277,Nb1.5Mo1.5Al1,4.9
10279,Pd16.5Sb83.5,4.9
10280,La1.85Sr0.15Cu0.971Ni0.029O4,11.6
10281,Y1Os1B2,2.22
10283,Nd0.65Pr0.35Ba1Ca1Cu3O7,10.0
10284,Y1Ba2Cu2.95Ga0.05O6.69,88.0
10285,La2.916Pr0.084Tl1,7.7
10287,Y2Ba4Cu7O14.33,22.0
10288,K0.46Zr1N1Cl1,15.0
10289,Bi1Na1,2.25
10290,Y1Ba1.6Sr0.4Cu3O6.8,88.5
10291,Rh16Ir1S15,4.08
10292,Co0.5Fe0.5Ti1,3.3