,composition,Tc
7209,Cu1Ir1.8Pt0.2Se4,1.06
7210,Y1Ba2Cu2.94Al0.06O6,86.0
7213,Ca1.65Na0.35Cu1Br2O2,18.0
7215,Nb2.85W0.15Al1,15.2
7216,Y1Sr2Cu2.7Re0.3O7.1,33.0
7217,Y0.7Pr0.3Ba2Cu3O6.6,28.5
7219,Tl1Ba1.6La0.4Cu1O5,34.0
7220,Sr0.33Hf1N1Cl1,20.3
7222,Ni2Zr1Ga1,2.87
7225,Cu0.08Ta1S2,3.45
7229,Gd0.5Nd1.35Ce0.15Cu1O4,14.3
7230,Nb0.5V1.5Zr1,4.3
7231,Bi1.6Pb0.4Sr2Cu2.8Mo0.2OY,98.4
7232,Bi2Sr2Ca1Cu2I0.03O8.21,86.6
7233,Ti0.85V0.15,1.95
7234,Nb0.79Si0.21,9.3
7236,Ba0.49K0.51Fe1.79Co0.21As2,15.0
7237,Nb80Ga17Co3,11.0
7238,Y0.8Ca0.2Ba1.8La0.2Cu3O6.96,78.0
7239,La1.85Sr0.15Cu0.925Zn0.025O4,15.0
7240,Cs0.19W1O3,6.7
7241,Sr0.2La1.8Cu0.95Co0.05O4,16.0
7242,La1.85Sr0.06Ca0.05Ba0.04Cu1O4,27.0
7243,Zr1Hf1As1,3.2
7245,La1Bi1S1.4Se0.6F0.5O0.5,3.0
7246,Mo1.7Ta0.3B1C1,4.6
7247,Y1Ba1.4Sr0.6Cu4O8,79.16666667
7248,Y1Ba1.9La0.1Cu3O7.06,91.9
7252,Tl1Sr2Ca0.5Sm0.5Cu2O6.75,37.6
7254,Al1Sr2Ho0.5Ca0.5Cu2O7.05,18.0
7255,Li0.8Fe1.2Se0.23S0.77H1O1,11.0
7256,Au22La78,3.9339999999999997
7257,Ba2Cu3O7,92.0
7258,Y0.6Pr0.4Ba1Sr1Cu3O6.89,53.0
7259,Sn0.949In0.051Te1,1.653
7262,Y1Ba2Cu2.79Zn0.21O6.95,20.0
7263,Eu0.7Na0.3Fe2As2,32.0
7264,Y0.65La0.35B6,4.0
7265,Li0.62Rb1Ca2Nb3O10,2.705
7267,Sm1.2Ba1.8Cu3O6.965,47.0
7269,Ba8Si46,8.1425
7271,Y1Ba2Cu3O6.821,91.1
7272,Nb25Ti50Ta25,8.6
7273,Pr0.89La1Ce0.11Cu1O3.98,26.0
7276,Pr1.83Ce0.17Cu1O4,15.425
7278,Nb0.58Ta0.42,6.54
7279,Ta0.15Zr0.85,4.29
7283,Mg0.95Zr0.05B2,37.7
7286,Mg0.9Zr0.1B2,37.3
7287,N0.74H2.22Na1Rb2C60,17.0
7288,Nb3Sn0.2Ga0.8,13.1
7289,Nb3.05Al0.7125Ge0.19,17.9
7292,Mo0.1Tc0.9,13.4
7293,Nb3Al0.952Se0.048,18.0
7294,Ca0.81La0.19Fe1As2,30.03333333
7295,La1.475Nd0.4Ba0.125Cu1O4,7.5
7296,Bi1.6Sr0.4Yb0.65Ca0.35Cu3O6.075,43.0
7298,K0.8Fe1.951Mn0.049Se2,31.9
7300,La0.9911Tb0.0089Al2,1.425
7301,Eu0.5K0.5Fe1.9Ni0.1As2,18.0
7302,Ag1Sn1Se1.8S0.2,5.79
7304,Nb0.75Ti0.25,10.02
7305,La1Ba1.5Ca0.5Cu3O7.079,76.0
7306,Pd0.02Ir1Te2,2.15
7308,La98Lu0.877Tb1.123,1.6019999999999999
7310,Rb0.7Bi1.3O3,11.0
7311,Ba1Fe1.892Co0.108As2,20.5
7312,Ti0.576V0.384Fe0.04,6.08
7313,In0.961Pb0.039,3.64
7316,Be22Re1,9.51
7318,Y0.5Pr0.5Ba2Cu3O7,25.93
7320,Ce0.9Yb0.1Co1In5,1.78
7321,Li0.8Fe1.2Se0.78S0.22H1O1,35.6
7323,Sr0.54Eu0.46Fe1.78Co0.22As2,16.2
7324,Nb3Ga0.8Zn0.2,16.2
7325,Eu3Bi2S4F4,1.425
7326,Ce1Co2,1.1125
7328,La1.9Sr0.1Cu1O3.98,29.5
7329,Y0.9Tb0.1Ba2Cu3O7,91.0
7330,Pb1Te1Sn1Te1,2.97
7332,Mo0.25Nb0.75,3.47
7333,Eu1Ba1Sr1Cu3O6.95,84.0
7334,Ho1.1Ir4B3.6,2.12
7337,Y1Ba2Cu2.67Ga0.33O7,65.64
7338,La1.735Nd0.14Sr0.125Cu1O4,15.0
7339,La1.85Sr0.15Cu0.9975Co0.0025O4,34.8
7340,Er0.8Ca0.05Hf0.15Ba2Cu3O6.706,64.8
7341,Y1.2Ba0.8Cu1O4,75.0
7343,Ti60Nb25Si15,4.8
7344,V0.75Si0.225Al0.025,13.5
7345,Mg0.99Fe0.01B2,34.7
7346,Fe1Se0.75Te0.25,13.3
7347,Re6Zr1,7.05
7349,Lu1Pt2Si2,1.9
7350,Nb0.67Pb1S3Ta0.33,2.01
7352,Co0.5Rh0.5Si2,2.25
7354,La1.2Ba1.8Cu3O6.98,80.0
7355,Ba0.5K0.5Fe1.7Ni0.3As2,5.1
7357,La0.89Sr0.11Fe1As1O1,25.5
7359,Bi2Sr2Ho1.64Ce0.36Cu2O10.22,24.0
7361,Gd1Ba1.9Pr0.1Cu3O7.03,63.3
7363,La1Fe1As0.95Sb0.05F0.2O0.8,30.1
7364,Bi2Sr2Ca0.4Y0.6Cu2O8,9.0
7365,Tb1Fe1As1O0.8,33.85
7366,Y1Ba2Cu3O6.602,59.4
7369,Th1Ru3Si2,3.98
7375,Ba1Fe1.85Co0.15As2,23.525
7377,Y1.01Ba2.03Cu2.808Li0.192O6.6,33.0
7379,Bi2Sr2Ca0.8Gd0.2Cu2O8,73.0
7381,Y2I0.75Br1.25C2,7.0
7382,Pr0.86Ce0.14Pt4Ge12,3.43
7384,Pb2Sr2Eu0.85Ca0.15Cu3O8.1,71.0
7385,Bi2Sr2Ca0.75Pr0.25Cu2O8,88.0
7386,Ga0.3Nb0.7,16.3
7387,Y1Ba1.2Sr0.8Cu4O7.9,79.0
7388,Mo3.29Zr96.71,2.12
7390,La1.8Sr0.2Ca1Cu2O6.03,51.0
7391,O3Sr0.08W1,3.0
7394,Ta0.5Nb0.5C1,11.1
7396,La1Ru3Si2,7.316
7399,O0.105Rh0.285Zr0.61,11.8
7400,La1.8Nd0.05Ca0.074Ba0.076Cu1O4.01,23.7
7401,Bi0.15In0.85,5.3
7403,Bi4Sr3Ca1.95Y1.05Cu4OY,25.6
7405,Tl1.2Sr2Ca0.8Cu2O6.862,60.0
7407,Au0.05Zr0.95,1.79
7409,Bi2Sr1.6Ca1.2Dy0.2Cu2O8.26,88.0
7410,Sn0.5In0.5Te1,4.4
7411,Sm1Fe0.9Ni0.1As1F0.12O0.88,5.6
7412,Ta0.8W0.2C1,9.92
7413,La1.8Nd0.2Cu1O4.071,34.8
7414,Mg1C0.885B0.04Ni3,6.97
7416,Y0.7Ca0.3Ba2Cu2.7Co0.3O6.84,70.0
7418,La98Lu1.4Tb0.6,3.127
7421,Dy1Ba1Sr1Cu3O6.9,77.05
7422,Ba0.62K0.38Bi1O3.1,29.5
7424,Eu1.2Pr0.8Ba4Cu7O14.788,52.0
7426,La1Fe0.985Zn0.015As1O0.85,6.01
7427,Ni27Zr73,3.1
7429,Y0.95Pr0.05Ni2B2C1,14.05
7430,Pr1Tl2Sr2Ca4Cu5O2,88.0
7432,Dy1Ba2Cu3O6.84,90.0
7433,Tl0.59Cs0.26Fe1.9Se2,30.3
7434,Sr0.84Nd0.16Cu1O2.01,40.0
7435,U0.99Pd2Al3,1.94
7436,N0.62Pt0.38,4.21
7438,Rh0.14Zr0.86,10.3
7439,V50Ti49.5Ta0.5,4.505
7440,Nb1.05Se2,4.86
7441,Nd0.8Pr0.2Ba2Cu3O6.85,30.2
7443,La1.737Sr0.263Cu1O4,8.0
7445,Nd0.92Pr0.08Ba2Cu3O7,68.2
7447,Ba2Ca3Cu4O10.35,116.0
7451,Li1Fe0.975Co0.025As1,13.4
7452,Cr0.67Os0.33,1.03
7454,La0.8Lu0.2,3.4
7456,Hg1Ba2Ca2Cu3O8.18,94.0
7459,Ho1Rh2.4Ru1.6B4,1.6
7460,Ce1Co1In4.75Zn0.25,1.82
7461,Ca1Fe0.85Co0.15As1F1,20.8
7462,Ho0.9Dy0.1Ni2B2C1,8.116666667
7463,Bi4S2.85Se0.15O4,3.5
7465,Fe0.101Ti0.899,3.67
7466,Pb1Mo6S6O2,11.7
7467,V2.79Mo0.21Si1,5.59
7468,Nb0.03Si1V2.97,15.8
7470,Y1Ni1.98Ru0.02B2C1,12.8
7472,Ga1Sr2Y0.5Ca0.5Cu2O7,35.0
7473,Ce1Co1In4.9992Hg0.0008,2.254
7474,Rh0.25Zr0.75,6.556666667000001
7475,Ge0.55Nb3.45,4.9
7477,Ag0.76Sn1.24Se2,6.72
7479,Y0.8Gd0.2Ni2B2C1,8.1
7480,Mg0.1Pb0.9,6.61
7483,Ru2Y1,2.23
7484,Ta1Rh1P1,4.635
7486,Th1Pd2B2C1,14.5
7488,Nb0.15Ta0.85,4.58
7489,Y1Ni1.985Cu0.015B2C1,14.3
7490,Li0.5Ti1N1Cl1,16.5
7491,B2Mg0.98,38.4
7492,Co0.1Zr0.9,3.9
7493,Be13Ru1,1.3
7494,La0.9Pr0.1Ba2Cu3O7,68.3
7495,La1Ni0.65Bi2,4.0
7496,Bi0.57Sn0.43,2.25
7497,Zr2Co0.8Cu0.2,5.41
7498,La0.8Rh4P12,14.9
7499,Fe1Sr2Y1Cu2O7.68,53.0
7500,Ce0.2Nd0.8F0.7Bi1S2O0.7,4.29
7501,Nb2.4Ta0.6Sn1,17.3
7502,Bi1.6Pb0.3Sb0.1Sr2Ca2Cu3O10,109.0
7503,U1Ni2Al2.98,1.155
7505,Ag7O11N1,1.04
7506,Tl1Ba0.6Sr0.4La1Cu1O5,20.0
7507,Y1Ba2Cu2.94Li0.06O6.6,26.0
7509,Pb4Pt1,2.8
7510,Re2Si1,3.8
7511,Nb3Rh0.3Pt0.7,7.4
7512,Li1Fe2Se2,44.0
7514,La3In0.7Ga0.3,9.25
7515,Er1Ba2Cu3O6.93,91.0
7516,Yb0.45Pr0.55Ba2Cu3O6.92,18.3
7517,La1.85Sr0.15Cu1O4.03,40.0
7518,La1.842Ba0.158Cu0.99Ni0.01O4,19.0
7519,Ba0.584K0.416Bi1O3,28.8
7521,Nb0.99Ta0.01,9.079
7522,Y0.6Pr0.4Ba2Cu3O6.53,15.0
7523,Tl2Ba2Cu1O6.03,62.0
7524,C1Mo3Pt2,1.1
7525,Ni40Zr60,2.31
7526,Ca0.4Nd0.6Ba1La1Cu3O7.19,21.9
7529,Bi2Sr2Ca1Cu2O8.16,89.125
7530,Gd0.8Th0.2Fe1As1O1,56.5
7531,Li2Na1N1C60,12.0
7532,La1Bi1S2F0.4O0.6,10.26
7533,Sb3Zr5,1.5
7534,Ca1Ir1Si3,3.3
7536,Ce0.85Yb0.15Co1In5,1.19
7537,Pb1.16Ti2Se5.16,2.775
7539,Y1Ba2Cu3F0.29O6.7,91.0
7541,Pb0.6Tl0.4,5.8
7543,Nd1Fe1As1O0.9,46.9
7545,Bi1.6Pb0.4Sr1.6La0.4Cu1OY,26.0
7547,Sm1Fe1As1H0.34O0.64,51.8
7548,Y1Ba2Cu2.97Zn0.03O6.76,61.4
7549,Hg1Ba2Cu0.97Zn0.03O4.073,82.0
7551,Ca0.1Ba1.65La1.25Cu3O7.06,41.9
7552,Ca3Rh4Ge13,2.1
7553,Be5Os1,9.2
7554,Ca9.75Er0.25Pt3Fe10As18,17.6
7555,Nb3Rh0.1Pt0.9,7.9
7556,La1.69Sr0.31Cu0.94Fe0.06O4,28.4
7558,Y1Ba2Cu4Li0.062O8,64.0
7561,Tb0.9Th0.1Fe1As1O1,45.0
7564,Nb80Ga19.4Fe0.06,16.2
7565,Y1Ba1.8Rb0.2Cu3O6.56,90.55
7567,Sr4Sc2Fe2P2O6,17.0
7568,Ba2Ca3Cu4F1.4O8.6,91.0
7569,Y1Ba2Cu2.95Al0.05O7,88.0
7571,C6Ir4O2,2.0
7575,Y1Ba2Cu2.95Zn0.05O6.52,23.0
7576,K0.83Fe1.83Se2,32.5
7577,Bi8Sr6Ca6Cu9O33.85,72.5
7578,Fe1.06Se0.14Te0.83,7.85
7580,Ca0.4Ba1.35La1.25Cu3O6.95,24.8
7581,Y0.7Pr0.3Ba2Cu3O6.97,59.3
7582,Nb3Al0.935Si0.065,18.4
7583,V2.97Mn0.03Si1,16.25
7585,Al1Gd0.001La3,5.6
7586,Nd0.75Pr0.25Ba1Ca1Cu3O7,26.0
7588,V0.741Ga0.152Al0.107,11.4
7591,Na0.5Nb1S2,1.3
7592,Nb2.927Zr0.073Al1,14.8
7593,Co28Zr72,3.12
7594,La2Cu0.99Zn0.01O4.099,29.3
7595,Mo0.2U0.8,2.113
7596,Lu5Ir3.1Rh0.9Si10,5.77
7597,Ir0.77Se2,3.5
7598,Sb2Tl7,5.2
7599,Y2Ba4Cu7O14.38,50.0
7601,Nb0.4Ta0.6C1,10.27666667
7603,Pr1.85Ce0.15Cu0.995Zn0.005O4.065,18.9
7604,Tb0.25Er0.75Ni2B2C1,4.9
7605,Pd2Lu1Sn1,3.05
7608,Sn0.25Ta0.5V0.25,3.7
7609,Ba0.625K0.375Bi1O3,28.96666667
7610,Ca10Pt4.054Fe9.7As18,26.5
7611,Th1Ir0.75Si1.25,3.82
7613,P1Zr3,4.5
7614,Bi1.6Sr0.4Yb1Cu3O6.35,37.0
7615,V2Hf0.8Ti0.2,8.8
7617,Tl1Sr1La1Cu1O8,32.0
7618,Gd0.2Mo6Pb1S8,14.3
7619,Nb3Rh0.95Pt0.05,2.53
7621,Y0.9Ca0.1Ba2Cu3O6.3,28.1
7622,Ba0.557K0.443Bi1O3,25.0
7625,Sm1Fe0.8Co0.2As1O1,1.895
7627,Bi2Sr2Ca0.8Nd0.2Cu2O8.26,89.25
7628,Ba1Fe1.738Rh0.262As2,8.3
7629,Ga0.71V0.29,4.2
7630,Er0.8Ca0.2Ba2Cu3O6.91,76.5
7631,Y1Ba2Cu2.94Zn0.06O6.76,41.1
7633,La1.85Sr0.15Cu0.973Zn0.027O4,2.8
7634,Ga1Sr2Ca3Cu4O11.,107.0
7635,Tl2.2Ca2Ba2.14Cu3.72OY,110.0
7636,Nb50Zr45Hf5,10.0
7638,Y0.8Ca0.2Sr1.6Ba0.4Cu2.7Ga0.3O7,53.9
7639,Pb1Tl2,3.925
7640,V2.964Mo0.036Si1,14.0
7642,Ca1.75Na0.25Cu1Cl2O2,26.5
7644,Y0.7Ca0.3Ba1.7La0.3Cu3O6.96,78.0
7645,La1.847Sr0.153Cu1O4,39.25
7646,Nb2.85Mo0.15Al1,14.45
7647,H0.46Nb0.69Pd0.31,3.05
7649,Tl2Ba2Ca1Cu2O7.958,107.0
7653,Ta2S2C2,3.61
7654,Nb1C0.2N0.64,16.3
7655,Sr2Y1Ru0.96Cu0.04O6,5.1
7656,Sr2Nd0.1Ca0.9Cu2F1O5,85.8
7658,Mg1B1.968C0.032,37.0
7659,Zr0.993Lu0.007B12,5.97
7660,Y2Pd1Si2.25C0.75,2.27
7662,Lu0.418Dy0.582Ni2B2C1,4.35
7663,Nb0.9Pt0.1,2.5
7664,Pd0.56W0.44,1.58
7665,Nd1.3Ba1.5Sr0.2Cu3O6.917,36.0
7666,Lu1Si3,6.78
7668,Y1Ni0.8Pd1.2B2C1,11.8
7672,La1.25Ca0.45Ba1.3Cu3O7.135,79.2
7673,La1Tl1.5Sn1.5,1.5
7674,Li2Pd0.48Pt2.52B1,3.07
7675,Ga0.2V2Al20,1.655
7677,La1.77Sr0.23Cu0.94Mn0.06O4,34.0
7678,Bi1.7Pb0.3Sr2Ca0.5Y0.5Cu2O8,41.3
7679,Nb79.1Sn9.4Al2.1Ge9.4,8.2
7680,V0.75Ge0.2125Al0.0375,8.9
7682,Y1Ba1Sr1Cu3O6.83,58.5
7683,Er1Ba2Cu2.88Zn0.03Fe0.09O6.95,65.0
7684,Zr2Co0.95Cu0.05,6.52
7685,Pr1Fe0.7Co0.3As1O1,4.0
7692,V0.683Ga0.22Al0.097,9.4
7693,Ba0.737K0.263Fe2As2,24.0
7694,Ti0.64Nb0.28Ta0.08,8.74
7695,La1.8Sr0.2Cu0.96Zn0.04O4,2.3
7697,Yb0.8Fe2Se2,42.0
7699,Mo1.8Rh0.2B1C1,9.1
7700,La3Ni4P4O2,2.2
7702,Zr1Ru1Ge1,9.0
7703,Bi2Pb1,4.25
7705,Nb0.75Mg0.25B2,4.5
7706,Pr1.85Ce0.15Cu0.99Zn0.01O4.065,18.41
7709,Sr0.062Bi2Se3,2.48
7711,B2Nb0.3,6.1
7713,Pd2Hf1In1,2.4
7714,Ta1Se1.6Te0.4,1.2
7715,La1.855Sr0.145Cu1O4,33.55
7717,Th1Ir1.8Os0.2,5.66
7718,In1Nb3,4.9
7719,Co0.002Mo0.815Re0.185,5.8
7720,Y0.6Pr0.4Ba2Cu3O6.61,26.0
7721,Hg1.4Tl0.6Ba2Y0.3Ca0.7Cu2O7.68,66.4
7722,Rb2Cs1C60,31.15
7723,Ga3Lu1,2.25
7725,La1.5Ba1.4Ca0.1Cu3O6.932,25.0
7726,Ba1Fe1.844Co0.156As2,21.7
7727,La1.895Ce0.105Cu1O4,24.3
7730,La1.822Ba0.178Cu0.99Ni0.01O4,18.2
7731,B5Mo1.7Ta0.3,7.0
7733,La1Si2,1.6
7735,K0.64Fe1.44Se2,31.0
7736,Ba0.9Rb0.1Ti2Sb2O1,5.33
7737,V0.75Ge0.2375Al0.0125,7.6
7740,Bi2Sr2Ca0.6Pr0.4Cu2O8,42.2
7741,La1Ni0.75Cu0.25C2,3.48
7742,U0.98Th0.02Pd2Al3,1.97
7743,Re16Zr84,3.32
7744,La1.8Sr0.2Cu0.98Zn0.02O4,19.06666667
7747,Y1Ba2Cu2.6Al0.4O7,42.0
7748,Tm1Ni1.91Co0.18B2C1,3.2
7749,Pd2Zr1In1,3.1
7750,Sm1Fe1As0.85P0.15F0.12O0.88,17.8
7751,Ca0.2La0.8Ba1.55La0.45Cu3O7.16,68.0
7752,Y1Ba2Cu3O6.97,90.575
7754,As0.5Ni0.06Pd0.44,1.39
7755,Ir0.02Nb3Rh0.98,2.43
7756,Pr1Pt1.5Au0.6B2.4C1.2,6.2
7757,Ba0.5K0.5Fe1.92Mn0.08As2,15.0
7759,Re0.65Ta0.35,1.58
7760,Ba1Fe1.958Pd0.042As2,4.1
7761,Y1Ba2Cu2.9Sn0.1O7.28,90.0
7762,Nb25V25Ti50,7.3
7766,Nb2Pd1S4.5Se0.5,4.27
7771,Zr33.3V61.8Nb4.8,6.13
7772,Ca1.702Cu0.851Cl1.851Na0.149O2.404,15.0
7773,Tm1Ni1.9Fe0.1B2C1,6.64
7774,V1Ta2Sn1,3.7
7775,Ti1Re1O1,5.74
7776,Th1Ir1.2Os0.8,3.16
7778,Th1Ir0.2Ru1.8,3.1
7779,Y1Sr2Cu2.65Ga0.35O6.6,17.0
7780,Y1Ba2Cu2.75Co0.25O7.06,66.2
7782,Ru1Sr2Gd1Cu1.9Li0.1O8,19.0
7783,Y0.4Pr0.6Sr2Cu2.85Re0.15O6.8,20.2
7784,Nb0.75Zr0.25,10.775
7785,Sm1.2Ba1.8Cu3O7.09,38.0
7788,Nd0.8Sm0.2Bi1S2F0.7O0.3,4.65
7789,Nb3Sn0.39Ge0.61,7.6
7790,Co0.96Mo0.04U6,1.5
7793,Zr24.3V48.5Nb27.2,4.6
7794,Ce1Co1In4.989Cd0.011,2.18
7795,Er0.98Gd0.02Rh4B4,8.22
7796,Al1Gd0.0065La3,2.79
7797,Fe1P1Sr2Sc1O3,15.0
7798,Mg0.97Fe0.03B2,32.96666667
7799,U0.98Ni2Al3,1.145
7800,Pb2.04Sr2.07Y0.61Ca0.38Cu3O8,65.0
7802,Y0.5Pr0.5Ba2Cu3O6.53,5.2
7803,La1.898Ba0.102Cu1O4,29.0
7804,Y1Pd2B2C1,22.6
7807,Ba0.7K0.3Bi0.7Pb0.3O3,14.6
7808,Nd1.84Ce0.16Cu1O3.96,16.1
7811,Lu2Ir2.7Rh0.3Si5,3.1
7814,Nb1.02Se2,6.75
7815,Th1.4Sc0.6C3,7.2
7816,Sm1.665Y0.185Ce0.15Cu1O4,10.0
7817,Y1Ba2Cu2.94Ni0.06O6.94,83.5
7818,Nd1.85Ce0.15Cu0.98Zn0.02O4,10.85
7819,Nb3Pd0.02Rh0.98,2.49
7821,Y1Ni1.5Pd0.5B2C1,12.1
7822,Am0.01Si2Th1,2.66
7824,Ir0.7Y0.3,2.16
7826,Zr1Ru1P0.6B0.4,5.6
7828,La0.006Si1V2.994,16.48
7830,Nb3Al0.66Ge0.34,20.4
7831,Al1Pd1Mo6,2.1
7834,La1.7Ba0.3Cu1O4,9.7
7835,Y1.4Th0.6C2.7,16.4
7836,Au0.07Zr0.93,2.52
7837,Hg0.66Pb0.34Ba2Ca1.98Cu2.9O8.4,143.0
7838,Pd0.51Sb0.49,1.67
7839,Sr2Ca1Cu2O5.5,77.0
7840,Y0.45Pr0.55Ba2Cu3O6.953,14.4
7841,Eu1.4Ba1.6Cu3O7.16,28.0
7842,Nd0.4Sm0.6F0.3Bi1S2O0.7,4.66
7843,Cu1Ir1.4Pt0.6Se4,1.64
7846,Y5Os4Ge10,8.946666667
7847,Be22Mo0.4Re0.6,8.6
7849,Sr0.2La1.8Cu0.99Cr0.01O4,22.0
7850,La1.868Sr0.132Cu1O4,35.5
7851,Pb1Mo6S6Se2,5.4
7852,Ba0.65Rb0.35Fe2As2,35.8
7853,Y1La0.2Ba1.8Cu3O7.16,61.7
7855,Y0.72Ca0.28Ba2Cu3O6,47.5
7856,Eu1Nd2S5,3.0
7858,Th0.9La0.2Ru2,5.87
7860,Sr1Ga1.1Si0.9,5.04
7861,Ho1Ni2B2C,8.6
7862,Ag0.05Rh0.04Ti0.91,1.95
7863,Nb3Rh0.7Au0.3,4.6
7864,Co0.03Zr0.97,2.61
7866,Er1Ba2Cu2.85Zn0.15O7,55.0
7869,Y0.1La0.9Ba2Cu3O7.05,79.0
7870,Pb1Ta1S3,3.09
7871,Nd0.8Sm0.2F0.3Bi1S2O0.7,4.745
7872,Y0.9Ca0.1Ba1.5La0.5Cu3O7.19,57.9
7873,Dy1Rh2.8Ir1.2B4,2.82
7875,Sr1.4Ba0.6Cu1O3.4,98.0
7876,Nb0.957Ta0.043,8.55
7878,La1.76Sr0.2Ho0.04Cu1O4,27.85
7886,Pr1.7575Y0.0925Ce0.15Cu1O4,14.5
7890,Eu1Cs1Fe4As4,35.0
7891,Ca2Pt3Si5,1.3
7892,Er1Ba2Cu3O6.94,91.5
7893,Sr1.2Ba0.8Y1Cu2.8Al0.2O7.19,16.0
7894,Zr1Ru1P0.9B0.1,8.1
7896,La1Fe1As0.1P0.9O1,5.96
7898,Y0.4Pr0.6Ba1.2Sr0.8Cu3O7,15.5
7900,Y1Sr2Cu2.65Fe0.35O6.7,34.0
7903,Pb2Rh1,2.66
7904,Nb1.8Ta1.2Sn1,14.1
7906,Y1Ba2Cu3O6.962,92.15
7907,Nb0.4V0.6,4.11
7908,Ba1Fe1.85Ni0.15As2,13.93333333
7909,Ce1Fe1As1F0.12O0.88,43.5
7910,Y0.85Pr0.15Ba2Cu3O6.8,59.0
7912,Y1Sr2Cu2.8Re2O7,42.0
7913,Au0.33La0.67,3.2
7916,Nb3Sn2,16.9
7918,Au1V3,2.2192
7921,Hg0.6Ti0.4Ba2Ca2Cu3O8.4,131.0
7922,Y0.9Sc0.1Ba2Cu3O6.56,91.4
7923,Bi2Sr2.5Nd0.5Cu2OY,50.09
7925,Mo3Sb4,2.1
7928,Y1Ba2Cu3O4,92.0
7929,La1.85Sr0.016Ca0.074Ba0.06Cu1O4,23.5
7930,Tl0.61V6S8,3.5
7931,Ca0.906Nd0.094Fe2As2,19.3
7932,Au0.2La0.8,3.97
7933,Zr0.95V0.05B2,8.2
7934,Y1Ba1.46Sr0.54Cu4O8,79.5
7935,Ba0.9K0.1Bi0.3Pb0.7O3,9.3
7936,La0.75Dy0.25Ba1Ca1Cu3O7,56.0
7937,Y1Ba2Cu2.94Ti0.06O6.91,77.0
7938,Zn1Mo6S8,2.8
7939,Ir0.265O0.035Ti0.65,2.3
7940,Y1Ba2Cu3H0.2O6.795,72.5
7942,Ir0.37V0.67,1.71
7945,Nb3Rh0.9Os0.1,2.3
7946,Zr1Ru0.9Rh0.1P1,2.9
7947,Mo6Se6.5Te1.5,6.23
7948,Th3Ni5C5,5.0
7949,Mo1B0.05C0.82,11.5
7951,Au0.22Nb0.78,7.6
7952,Fe1Se0.574Te0.246,10.01
7953,Pd2Sn1Y1,4.9
7954,Mg1.98Mn0.02B2,36.9
7957,Na0.1Ta1S2,4.4
7958,Rh1Ta1,2.0
7959,Nb3Pb0.15Sn0.85,18.2
7960,C0.57Sr2Ca0.7Y0.3Cu2.33O6.78,60.3
7961,La1Ba1.5Ca0.5Cu3O7.011,78.0
7962,Pd1Te1.04,2.28
7963,Ag1Sn1Se2,4.655
7964,Th0.8Y0.2,1.64
7965,La1.875Ba0.025Sr0.1Cu1O4,29.65
7966,Nb0.747Al0.239Si0.014,18.0
7967,Mg0.5Co0.5B2,31.5
7968,Yb0.55Pr0.45Ba1.7Sr0.3Cu3O6.88,41.0
7969,Rh37Zr63,2.86
7971,Zr2Co0.75Ni0.25,4.91
7973,Er0.6Y0.4Pd2Sn1,2.59
7974,Lu5Rh4Si10,3.72
7976,La1.575Nd0.3Sr0.125Cu1O4,9.0
7977,Nb3.2Al0.24Ge0.4,10.2
7978,Lu0.75Th0.25Rh4B4,11.93
7980,Nb3Sn0.8Sb0.2,16.5
7981,Nb2Pd1S3.5Se1.5,1.87
7983,Li1Zr1N1I1,14.2
7984,Y1Ba2Cu3O6.828,88.0
7985,Tl1Ba0.6Ca0.4La1Cu1O5,14.0
7986,Yb1Pd2Sn1,2.06
7987,Bi1.5Pb0.5Sr1.6La0.4Cu1O6.044,28.1
7988,Rb0.8Fe2Se1.7Te0.3,25.5
7989,Sr1Ga0.8Si1.2,4.24
7991,Ce1Ni0.86Bi2,4.1
7994,Zr1N1Cl1,13.0
7995,Nb0.25Ti0.75,7.4
7996,Ag0.7Mo3Se4,5.96
7998,Ga3Nb5,1.35
7999,Hg2Mg1,4.0
8000,Ta1S1.8Se0.2,2.75
8001,Bi0.1C1.45Y0.9,9.35
8002,Zr0.3Hf0.7V2,9.96
8003,Co4.95Ga25V70.05,7.56
8004,Y1Ba1Sr1Cu2.75Sn0.25O7.163,40.9
8005,Ba0.87Nd0.13Fe2As2,4.76
8007,Pd0.3Zr0.7,2.53
8008,Nd2Cu1F0.2O4,13.0
8009,Ca1Fe1.73Co0.27As2,12.0
8010,Y0.95Gd0.05Ni2B2C1,13.5
8011,Nd0.6Sm0.4F0.3Bi1S2O0.7,5.21
8012,Tm1Ba1Sr1Cu3O6.94,70.0
8013,Hg1Ba2Cu1O4.01,64.5
8016,La1.85Sr0.15Cu0.9725Zn0.0275O4,1.2
8017,La1.79Sr0.21Cu0.99Zn0.01O4,20.0
8018,Bi1.8Pb0.2Sr2Ca1Cu1.92Co0.08O8,43.0
8020,C0.7Nb0.3,6.0
8021,Gd1.4Ce0.6Sr2Cu2Ti1O10,11.0
8023,Ba0.86La0.14Fe2As2,22.7
8024,Bi0.15Ge0.15Nb3Sn0.7,17.75
8026,Pr2Pt3Ge5,7.8
8027,Y0.95Sc0.05Ba2Cu3O6.63,91.7
8029,Zn0.025In2O3,2.68
8030,Ba1.2Sr0.8Yb1Cu3O6.61,36.7
8032,Ba0.75Na0.25Ti2Sb2O1,5.015
8033,Bi2Sr2Cu1O6.36,8.0
8036,Y1Ba2Cu3O6.765,75.8
8037,Sr1Fe1.78Ni0.22As2,2.305
8038,Ag1Bi2,3.0
8039,Tb0.2Er0.8Ni2B2C1,7.1
8041,Y1Ba2Cu3F1.46O6,55.0
8042,Th1Ir2Ge2,1.51
8044,Y0.76Ca0.24Ba2Cu2.64Co0.36O6.96,66.0
8045,Nb1Se2,6.814619048
8047,Y0.9Pr0.1Ba2Cu3O6.98,85.9
8048,Ga0.251Nb0.749,19.9
8049,Ce0.95Nd0.05Co1In5,1.95
8050,Nd1Fe0.95Rh0.05As1O1,7.1
8053,Co1Sc0.125Zr1.875,2.89
8054,Ca1Rb1Fe4As4,35.0
8057,Er0.75Tb0.25Ni2B2C1,4.45
8058,Ce1Fe1As1H0.3O0.7,44.9
8059,Ca1Fe1.82Co0.18As2,15.7
8060,Nb3Rh0.95Co0.05,1.96
8061,Sr1Fe1.4Ru0.6As2,19.8
8062,Dy1Ba1.6Sr0.4Cu3O6.89,80.6
8064,Ga1Sr2Ca3Cu4O10.8,93.0
8065,La0.92Nd0.08Pt1Si1,2.04
8068,Li0.8Fe1.2Se0.47S0.53H1O1,24.2
8070,Bi2Rb1,4.25
8071,Mg0.98Al0.02B2,36.7
8072,La1.85Sr0.15Cu1H0.1O4,35.4
8073,Nb0.5Re0.5,2.9
8074,Mg0.97Cr0.03B2,35.1
8075,Er0.94Ca0.06Ba2Cu2.82Co0.18O6.76,64.0
8076,Eu1Ba1.2Pr0.3Sr0.5Cu3O6.89,32.0
8077,Cu0.044Ti1Se2,1.5
8078,Tm1Ba2Cu3O6.8,79.8
8081,La1.87Sr0.125Cu1.07O4,26.4
8082,Y1Ni2Pd,16.3
8083,La1.9Ba0.1Cu0.99Ga0.01O4,14.3
8085,C0.25N0.75Nb0.85Ti0.15,17.8
8086,Sn0.672Ge0.168In0.16Te1,1.93
8088,La1.85Sr0.09Ca0.034Ba0.026Cu1O3.99,32.2
8090,Y0.85Ca0.15Ba2Cu3O6.71,78.0
8091,Fe0.08Nb0.05Ti0.87,4.7
8092,Y1.968Lu0.032Fe3Si5,2.9
8093,Nb0.72Sn0.28,18.2
8094,Nd2Cu1F0.3O4,19.0
8095,Y0.74Ca0.26Ba2Cu3O6,44.7
8096,La0.8Ti0.2Bi1S2O1,2.35
8097,Y0.94Ca0.06Ba2Cu3O6.97,83.4
8098,Nd0.85Pr0.15Ba2Cu3O6.75,21.6
8100,Pr2Ba4Cu7O14.36,20.6
8101,H0.55La0.89Sr0.11Cu0.995Fe0.005O4,13.2
8102,Tm1Ba2Cu3O6.41,19.0
8103,Nd2.1Cu1O4,30.35
8104,Au25Sb75,6.7
8105,Pr0.8Sr0.2Fe0.7Co0.3As1O1,4.48
8107,C0.28N0.76Nb1,16.4
8108,Y1Ba2Cu2.97Zn0.03O6.68,41.0
8109,Y0.899Ca0.101Ba2Cu3O6.943,83.0
8111,Y2I1.3Br0.7C2,10.5
8112,H0.12Ta0.88,2.81
8114,Ga9Rh2,1.925
8115,Nd1Pt2.1B2.4C1.2,2.91
8116,Y2Fe1C4,3.6
8118,Bi0.86Tl0.14,6.5
8119,Nd1.1Ba1.9Cu3O7.05,65.5
8120,Bi2.05Pb0.05Sr1.9Cu1OY,9.4
8122,Ce0.15Ru0.85,3.9
8123,Hg1Pb2.3,6.0
8128,Li2Pd3B1B1,8.19
8129,In3Te4,1.2
8131,Nb25Ti50Zr25,7.2
8133,C3Ho0.6Th1.4,5.2
8134,Nd1Ba2Cu3O6.78,63.0
8135,Y1Ba1.9La0.1Cu4O7.8,67.8
8136,Hf0.8Zr0.2V2,9.73
8137,Sb0.28Tl0.72,5.2
8138,Fe0.05Ta1S2,3.0
8140,Tl1.7Ba2Cu1O6,24.0
8143,Ni2P2Sr4Sc2O6,3.525
8144,Y0.8Ca0.2Ba2Cu3O6.84,82.0
8145,Ir1V2,1.39
8146,Nb2.75Sn1Ta0.25,17.8
8149,La2.406Pr0.594Tl1,2.4
8151,Hg0.5Fe0.5Sr2Y0.7Ca0.3Cu2O6.7,24.0
8152,La1.1Ba1.5Ca0.4Cu3O6.97,70.0
8153,Tl2Ba2Ca1Cu2O7.978,95.0
8154,Nb81Si19,4.35
8155,Al0.01Nb0.97O0.02,8.3
8156,Ce1Cu2Ge2,1.32
8158,Sr0.9La0.1Cu1O1.96,42.5
8159,Y0.64Ca0.36Ba2Cu2.64Co0.36O6.87,82.0
8161,Mo0.38Re0.62,5.7
8162,Bi2Sr2Ca1Cu1.96Fe0.04O8,65.7
8163,In0.2Pb0.8,6.95
8164,Hg1Ba2Cu0.97Zn0.03O4.027,28.0
8165,H0.55La1.8Sr0.2Cu0.995Fe0.005O4,26.0
8166,Pt0.52W0.48,1.35
8167,Yb0.7Ca0.3Ba1.6Sr0.4Cu3O6.1,48.3
8169,La1Fe4P12,3.075
8170,Mg0.95Al0.05B2,36.46666667
8172,Y0.8Ca0.2Ba2Cu3O6.03,43.5
8173,Nd1.295Gd0.555Ce0.15Cu1O4,17.0
8174,U6Mn0.5Fe0.5,2.86
8176,La1Ni1As1H0.17O0.83,3.68
8177,Nb2.976Ti0.024Al1,17.7
8178,Fe0.95Zn0.05Se0.3Te0.7,13.5
8180,Bi3.85Co0.15S3O4,3.9625
8182,Nb0.75Al0.225Ge0.025,17.9
8183,Mg1B1.896C0.104,35.0
8184,Yb0.9Pr0.1Ba2Cu3O6.92,88.0
8186,In0.08Sn0.92Te1.01,1.45
8188,Y1Ba1.4Sr0.6Cu3O6.8,86.0
8189,Y0.5Th0.5Ni1C2,8.3
8190,Tm1Ba2Cu3O6.65,92.5
8192,Ga0.253V0.747,14.9
8193,La0.8Sr0.2Fe1As1O1,24.9
8196,Ca0.1La1.15Ba1.75Cu3O7.148,57.1
8197,Bi0.1Sn0.9,5.34
8198,La1.13Pr0.72Sr0.15Cu1O4,32.0
8199,Ba1Ag0.4Si1.6,2.79
8200,Tm1.8Pr0.2Ba4Cu7O14.725,76.0
8201,Y0.95Tb0.05Ni2B2C1,14.42
8203,Tl1Sr2Ca1Cu2O6.74,43.0
8205,Pr2Ba4Cu7O14.44,20.75
8207,Hf1V2H1.6,2.2
8208,Mg0.997Fe0.003B2,37.8
8211,Li1Ti1.91Cu0.09O4,14.4
8213,Eu1Ba1Sr0.9Ca0.1Cu3O6.95,81.0
8215,Nb0.3Mo0.7C1,12.1
8216,Y0.9Tb0.1Ba2Cu4O8,78.0
8219,La1Pd0.8Bi2,2.865
8220,Nb3Ga0.8Sn0.2,16.2
8221,Mg1B1.81C0.19,30.335
8222,Ce0.95Yb0.05Co1In5,1.945
8223,Mg1B1.92F0.08,21.0
8224,Sr0.5Rb0.5Bi1O3,13.0
8226,Ce1Rh0.35Co0.65In5,1.38
8227,Ge1.9La1,2.17
8228,Ba1Fe1.82Co0.18As2,20.7
8230,Bi1Pb1Sr2Y0.6Ca0.4Cu2O8,83.0
8231,Y1Sr0.8Ba1.2Cu2.5B0.5O7,51.0
8232,Bi1.6Pb0.4Sr1.6La0.4Cu1O4,36.0
8233,Mo0.95Hf0.05C0.74,12.4
8234,Ba0.82La0.18Fe2As2,14.8
8235,Pb1Mo6S4Se5,3.64
8236,Ba0.66K0.34Bi1O3,28.1
8237,Nd1.85Ce0.15Cu0.994Co0.006O4,2.15
8238,Pd2.8S1,1.63
8241,Nb1C0.3N0.62,17.3
8242,Y1Ba2Cu3.996Ni0.004O8,78.0
8244,Cr0.008Cu1Rh1.992S4,3.9
8245,Ba6Nb10O30,1.625
8247,Si0.206V0.794,14.5
8248,Ca5.9Sr3.5Bi0.3Y0.1Pb0.1Al0.1Cu15.1O29,75.0
8249,Li0.15Sr2Cu1Br2O2,8.0
8250,Nd1F0.7Bi1S2O0.7,4.78
8253,La1Fe1As1F0.28O0.68,33.5
8254,H0.995Pd1,9.275
8255,Er0.85Ca0.15Ba2Cu3O6.93,79.5
8257,B5Mo1.7Nb0.3,8.3
8258,In0.05Pb0.95,7.091
8259,Si1V2.7Nb0.3,12.8
8261,Bi2F0.6S2O0.4,5.1
8265,Hg0.92Ba2.05Cu1.03O4.079,79.2
8266,Ge0.3Cu0.7Sr2Ca2.9Y0.1Cu4O11.1,89.0
8267,Ir3Th7,1.52
8268,La0.9Nd0.1Pt1Si1,1.42
8269,Tc6Zr1,9.7
8270,Zr2Co0.95Ga0.05,5.79