,composition,Tc
15236,Ba1Fe1.75Zn0.14Co0.11As2,5.0
15239,Sn0.56Pb0.24In0.2Te1,3.87
15241,Sm1.75Gd0.1Ce0.15Cu1O3.97,21.4
15242,Bi0.575Pb0.425,8.03
15243,Cu0.005V0.995,4.92
15244,Hg4K1,3.27
15245,Bi0.5Sb0.5,2.94
15246,Y2Br0.25Cl1.75C2,2.85
15248,Th0.65Y0.35,1.53
15249,Sm1Fe1As0.55P0.45H0.26O0.74,17.0
15250,Rb0.14W1O3,5.1
15251,La1.85Sr0.15Cu1FeO4,39.9
15252,Hg1Ba2Cu1O4.06,73.0
15253,Nd1.85Ce0.15Cu1O4.026,21.1
15255,Y0.85Pr0.05Ca0.1Ba2Cu4O8,83.8
15256,Pb0.2375Sn0.7125In0.05Te1,2.66
15257,Re24Ti5,6.6
15258,Ta1Se1.2Te0.8,1.585
15259,Hg1Ba2Cu1O4.16,88.0
15261,Bi0.05Pb0.95,7.388
15262,Eu1.6Ce0.4Sr2Ru1Cu2O10,32.0
15264,La3Ca0.5Cd0.5Ba3Cu7O16.375,59.0
15265,La0.15Ce0.85Ru2,5.872000000000001
15266,La1Pd0.6Ge0.14,2.8
15267,Y1Ba2Cu2.982Zn0.018OY,82.0
15268,Ir0.26Mo0.74,6.7
15269,Y1Ba1.8Cu2.8Co0.2O6.95,43.0
15271,Pb0.5Cd0.5Sr1.6Ba0.4Ca0.5Y0.5Cu2O7,36.0
15272,Ca1Tl1.8Pb1.2,2.8
15274,Hg0.06Sn0.94,5.05
15275,Ga0.5Si0.5V3,18.2
15276,Ge2Sc1,1.3
15277,V3Si0.8Al0.2,14.0
15278,Nb24Ti75Ta1,7.4
15279,Y1Ba1.97La0.03Cu3O6.96,93.2
15282,Bi4S2.97Se0.03O4,4.2
15283,Tl1.6Ba2Ca3.3Cu4O11.89,103.0
15284,In25Sb75,4.1
15286,La1.92Ca0.08Cu1O4,15.0
15287,Cr1Ru2,2.0
15288,Sc0.25Y0.75Ir3.6Rh0.4B4,2.92
15289,Nd1.85Ce0.15Cu0.995Fe0.005O4,16.5
15290,Fe1Sr2Y1Cu2O7.51,53.5
15291,Cs1Bi4.1Te5.9,4.4
15292,Bi1.2Pb0.8Sr2Ca1Cu2O8,93.0
15293,Y0.9Th0.1Ni1C2,6.005
15294,Er0.95Ca0.05Ba2Cu4O8,83.2
15297,Sr0.2Mo1S2,5.05
15299,Bi2Sr2Ca1Cu2O8.293,87.5
15300,La1.9Pr0.1Ca0.2Ba2Cu4.2O9.8786,25.5
15301,Ba1Fe1.926Co0.074As2,6.2
15304,Y0.8Ca0.2Ba1.8La0.2Cu3O6.94,84.0
15305,Pd0.165Sb0.835,4.9
15306,Yb0.7Pr0.3Ba2Cu3O6.97,73.5
15307,Nd1Ba2Cu3O6.81,91.7
15308,Zr1P1.4S0.6,4.99
15311,Nd1.85Ce0.15Cu0.998Fe0.002O4,19.5
15313,Pd1Te2,1.61
15315,La1Pd0.8Sb2,3.25
15317,Sr2Cu1F2O2,44.33333333
15318,Lu0.85Er0.15Ru1B2,8.86
15319,Sm1.25Gd0.6Ce0.15Cu1O3.97,16.8
15321,Ba0.59K0.41Fe2As2,36.9
15323,Ir0.4Nb0.55O0.05,10.5
15324,Sc1Tc2,10.9
15325,Pd35Zr65,1.98
15326,Ba1Fe1.856Cu0.088As2,2.15
15327,Mg1B1.938C0.062,37.0
15328,Sm1Fe1As1H0.25O0.75,54.85
15330,La1.7Nd0.2Ba0.1Cu1O4,15.0
15331,Ca10Pt5Fe9As18,9.78
15332,Y1Ba1.6La0.4Cu3O7.04,59.0
15333,La0.3Y0.7Fe1As1F0.15O0.85,38.0
15335,Fe1Se0.5Te0.5,12.97125
15336,Ce1Pd1Bi1,1.3
15337,La1.85Sr0.15Cu0.992Zn0.008O4,29.375
15338,Sr1.5Ba0.5Y1Cu2.8Ga0.2O7.1,50.0
15339,Y1Ba2Cu2.94Zn0.06O6.93,75.0
15341,Y0.9Pr0.1Ba2Cu3O6.96,83.0
15342,Sr2Ca1Cu2.8O7.5,83.0
15344,Y1Ba2Cu2.85Co0.15O7.03,65.0
15345,Y1Ba1.8La0.2Cu3O6.6,28.1
15348,La1Pd2Ge1.9Sn0.1,1.25
15349,Cu1Cr0.95Fe0.05O2,117.5
15351,Cr0.4Re0.6,2.15
15352,Ta1Ru1Si1,3.15
15353,Bi1.95Sr1.45Pr0.6Cu1O4,22.0
15354,Nb25Ti30Zr45,7.7
15355,Pr1.96Ce0.04Cu1O4,23.6
15356,Ca1Ir2,5.075
15357,B2Nb1,4.5975
15358,Nb0.8Ga0.19Ni0.01,14.1
15362,U2Pt0.9Rh0.1C2,1.09
15363,Y0.8Pr0.2Ba2Cu3O7.5,62.9
15364,Mo6S8,1.8
15367,Ga0.5Mo5S6Sn1,13.3
15369,Na0.33V2O5,7.666666667
15370,Nb0.87Si0.09N0.13O0.13,16.8
15371,Nb3Al0.93Ge0.07,20.0
15372,Cr3Ru1,3.3
15373,Y1Ni1.4Pd0.6B2C1,9.92
15374,V3Si0.98Al0.02,16.12
15375,Nd0.5Ca0.5Ba0.6La0.4Cu3O6.77,80.5
15377,Si1V2.7Zr0.3,13.2
15378,K2Cs1C60,24.0
15380,Nd1Ba2Cu3O6.98,91.0
15381,Y1Ba2Cu2.05Al0.95O6.7,63.0
15382,Bi1Pb1Sr1.6La0.4Cu1O6.065,19.8
15384,Ru11Zr89,3.87
15385,Er1Pd1Bi1,1.24
15387,Dy1Th3.4Ru0.6B4,4.0
15388,Ba0.6Rb0.4Ti2Sb2O1,5.71
15389,La1.885Sr0.115Cu0.99Zn0.01O4,8.56
15391,Pb0.989Tl0.011Te1,1.16
15392,La2.25Pr0.75Tl1,1.24
15395,Y1Ba1.99La0.01Cu3O6.96,92.1
15396,Pt1Sn4,1.19
15398,Sn0.7127Pb0.2373In0.05Te1,2.62
15401,Sr1Pd1.98Ag0.02Ge2,2.64
15402,Y0.85Ca0.05Pr0.1Ba2Cu3O6.95,84.6
15403,Y0.8Th0.2Ni1C2,6.535
15404,Rb0.75Fe1.6Se1S1,22.0
15407,La0.9Sr0.1Fe1As1O1,24.6
15408,Cu3.5Sr2Ca2Cr0.5O9.55,103.0
15409,Nd1.2Ba1.4Sr0.4Cu3O6.731,65.0
15410,Ti0.64Nb0.24Ta0.12,8.32
15411,Ba0.665K0.335Bi1O2.985,27.3
15412,Tl1Sr1.5Gd0.5Ca1Cu2O7,79.0
15413,Al0.18La0.82,4.65
15415,Zr2Rh1H0.7,6.0
15416,Cu2Mo6S8,10.615
15417,Fe1.9Co0.1As2Sr4Mg1Ti1O6,22.0
15418,Ir1.15Nb0.85,4.675
15420,Bi1.7Pb0.3Sr2Ca2Cu3F0.2O9.8,111.0
15421,Y1Sr2Cu2.7Ti0.3O7,58.0
15423,N0.9Nb0.114Ti0.886,10.1
15425,Nb0.71Mo0.29C1,13.45
15427,Bi2La4Pb1,2.3
15428,Si1V2.7Cr0.3,11.3
15429,Nb3Al0.55Ge0.45,11.7
15430,Al0.97Li0.03,1.05
15433,Nb3Rh0.98Pt0.02,2.52
15436,Y1Ba2Cu2.4Fe0.6O7.453,62.0
15439,Fe1.03Te0.9Se0.1,11.9
15441,Al2Ca1Si1,5.8
15442,Na0.35Co1H1.4O2,4.7
15443,Ce1Fe1As1F0.08O0.92,27.6
15445,Nb3Al0.991Ge0.009,19.0
15446,Ca9.57La0.43Pt3Fe10As18,13.3
15449,Sr1Pd1.9Ag0.1Ge2,2.62
15451,Ga25V75,15.3
15452,Pb4Ag1Bi6Se14,1.075
15454,Sn0.5883Pb0.2517In0.16Te1,3.88
15455,Pd0.03Ir1Te2,2.68
15456,Ga3Zr5,3.85
15457,La1.25Ba1.65Ca0.1Cu3O7.15,57.3
15458,La1Fe0.975Co0.025As1O1,8.58
15459,Pd2Sc1Sn1,2.1
15460,Nb0.9Rh0.1,2.8
15462,Pr1Fe1As1F0.225O0.775,50.0
15463,Lu3Os4Ge13,3.6
15464,Rb0.77Fe1.61Se2,32.6
15465,B2.1Nb1,7.45
15466,Sm1Fe1As1F0.06O0.94,36.4
15467,Y1Ni1.8Mn0.2B2C1,8.7
15469,Zr2Co0.9Cu0.1,6.07
15471,Gd1Sr1.8Ba0.2Cu4O8,73.1
15472,Ba6.63Si46,6.0
15473,Lu0.98La0.02Ni2B2C1,16.2
15474,Pr0.8Sr0.2Fe0.94Zn0.06As1O1,12.0
15475,Nd1.32Ce0.27Sr0.41Cu1OY,20.0
15476,H0.64Nb0.85Pd0.15,4.3
15477,Ni0.1Zr0.9,1.5
15478,Sr1.5Ba0.5Y1Cu2.8Ga0.2O7,38.0
15479,Ca3Al2Fe2As2O5,30.2
15481,Tm0.9Pr0.1Ba2Cu3O6.95,87.9
15482,N0.88Nb0.256Ti0.744,14.72
15483,Sm1Ba2Cu2.98Zn0.02O6.82,81.0
15485,Sm1Fe1As1H0.12O0.77,54.2
15486,Nb1P1S1,12.5
15487,Y0.8Ca0.2Ba2Cu3O6.8,84.1
15488,Y0.984Ca0.016Ba2Cu3O6.986,89.5
15489,La0.95Y0.05,5.4
15490,Sm1Ba2Cu2.8Fe0.2O6.96,47.0
15491,Nb2.1Mo0.9Al1,8.3
15492,Lu1Ni0.8Cu0.2B1C1,3.38
15493,Os0.432Re0.568,1.18
15494,N0.75H2.25Na1K2C60,11.8
15495,Ba1Fe1.9Ni0.1As2,20.15
15496,Nb2.9925Zr0.0075Al1,17.6
15497,Nb3In0.2Sb0.2Sn0.6,16.0
15498,Tl0.5Pb0.5Ca1Sr2Cu2O7,84.5
15499,Fe1U6,3.88875
15500,Sb0.05Sn0.95,3.75
15501,Rh0.0375Zr0.925,3.65
15503,Eu0.75Sn0.25Mo6S7.2Se0.8,3.9
15505,Fe1.013Te0.68Se0.32,11.0
15506,Pb0.4Tl0.6,4.67
15507,Lu0.8Pr0.2Ba2Cu3O7,86.8
15508,Y0.95Pr0.05Ba2Cu3O6.95,91.5
15510,Al2Si2U1,1.34
15511,Sm1Ba2Cu3O7.11,93.5
15513,Ca9La1Pt3Fe10As18,27.9
15515,La1.75Ca1.25Cu2O5.99,47.7
15516,Mg1C1Ni2.9Co0.1,7.29
15517,Y0.75Dy0.25Ni2B2C1,12.0
15518,La1.885Ca0.115Cu1O4,23.0
15519,Co0.5Fe0.5U6,3.0
15520,Y1In0.75Pb2.25,1.94
15521,Ho1Ba1Sr1Cu3O6.94,79.0
15522,Rh3Bi14,2.94
15523,Hf0.05Rh0.04Ti0.91,1.7
15524,Cr0.74Re0.26,3.12
15525,Pb2Sr2Eu0.7Ca0.3Cu3O8.1,73.0
15526,Er0.76Ca0.24Ba2Cu2.76Co0.24O6.92,84.0
15527,Bi2Sr2Ca0.5Pr0.5Cu2O8.329,5.1
15528,Sm1La0.8Sr0.2Cu1O4,24.0
15529,Nb3Rh0.5Pt0.5,6.25
15530,Hg0.85Re0.15Ba2Cu1O4.58,34.85
15531,La1Ba1.1Ca0.9Cu3O7.02,75.0
15532,Hg1Ba2Cu1O4.21,80.0
15535,V50Ti45Mo5,6.9
15536,Y1Ba2Cu2.82Ni0.18O7,68.0
15537,Ni2As2Sr4Sc2O6,2.75
15538,Bi2Sr1.6La0.4Cu1O6.32,23.2
15539,Eu1Ba2Cu3O6.82,94.0
15540,Pr1Os3.4Ru0.6Sb12,1.53
15541,La2Sn5,5.4
15542,Mg1B1.89C0.11,33.85
15544,Nb2.97Zr0.03Al1,17.4
15549,Y1Ba1Sr1Cu2.85Sn0.15O7.062,63.7
15550,Rh0.35V0.65,1.075
15551,Ba1Bi3,5.745
15552,Nd0.95Pr0.05Ba2Cu3O6.65,26.7
15553,Y1La0.2Ba1.8Cu3O7.64,88.1
15555,Y1Ba2Cu2.68Fe0.32O6.999,26.0
15556,Al1Ce0.01La3,3.92
15557,Nd1.85Ce0.15Cu0.99Zn0.01O4,15.3
15559,Mo0.865Re0.135,6.1
15560,Ca1.85Cu1Cl2O2,30.0
15561,Rb0.33Ta1S2,3.0
15562,Ba0.9K0.1Ti2Sb2O1,5.13
15563,Al0.2Si0.8V3,15.7
15564,Pr1.86Ce0.14Cu1O4,19.35
15565,Na0.2Ba6Si46,4.8
15566,La1Ba1Ca1Cu2.8Ni0.2O6.837,30.0
15567,Rb0.27W1O3,1.9
15569,Y1Ba2Cu2.9Fe0.1O7,80.5
15571,Lu1.92Sc0.08Ir3Si5,3.1
15572,Ce1Co1In4.97Sn0.03,1.86
15574,Ir0.94Pt0.06Te2,2.69
15575,Lu0.81Gd0.19Ni2B2C1,6.155
15577,Hg0.9Re0.1Ba2Cu1O4.41,94.5
15578,Bi2Sr2Ca1Cu2O8.17,85.5
15579,Ho1Rh3.4Ru0.6B4,6.14
15580,Sr1Ga0.55Si1.45,3.4
15582,Mg1Co1Ni2.94Co0.06,6.0
15583,Nb0.95Ti0.05,9.41
15584,Sr0.86Nd0.14Cu1O2,37.5
15587,Mo6Se5Cl3,5.7
15588,Tm1Ba2Cu3O6.49,50.0
15589,Mo6.3Pb1S6Se2,5.4
15590,Ba0.3K0.7Fe2As2,19.7
15591,V2.7Ru0.3Si1,2.9
15592,Sr1Pd1.99Pt0.01Ge2,2.82
15593,Ba1Fe1.808Rh0.192As2,17.8
15594,Y1Ba1Sr1Cu3O6.899,80.2
15595,Al1Nb2.7V0.3,15.4
15596,Au0.2Ga0.8,1.587
15597,Ca0.7Nd0.3Ba1La1Cu3O7.04,73.8
15598,Y1Ba1.9Sr0.1Cu3O6.89,89.0
15600,Y0.5Cd0.5Ba2Cu3O7,93.2
15601,Nb25Ti10Zr65,7.5
15603,Y1Ba2Cu4O7.986,79.6
15605,Mo0.4Re0.6,6.245
15606,Hf1P1.5S0.5,4.97
15607,La2.5Ca1Ba2.5Cu6O14.146,79.0
15608,Sr0.8Eu0.2Fe1.78Co0.22As2,18.0
15609,Sm1.27Ba1.73Cu3O7.05,50.05
15610,La1.65Er0.35Ba2Ca0.7Cu4.7O11.166,71.0
15612,Zr1Os1P1,5.3525
15615,Pd0.074Ti0.926,4.85
15616,Rh0.02Ti0.98,2.465
15617,Ba8Si40Ga6,3.3
15618,La1Bi1S1.2Se0.8F0.5O0.5,3.7
15619,Sr1Fe1.66Co0.34As2,5.56
15620,Sm1Fe0.96Ni0.04As1O1,7.5
15621,V3Si0.9Ge0.1,14.0
15622,La1.7Sm0.3Cu1O4,25.0
15624,Cr0.05Nb0.95,6.66
15626,Ru0.95Sn0.05Sr2Gd1Cu2O8,30.0
15627,Mg0.75Fe0.25B2,32.0
15629,Re1Ti1O5,5.71
15632,B1Zr1,3.1
15633,Ba1Pb0.55Hg0.2Bi0.25O3,3.83
15635,La2Cu1O4.0625,17.0
15636,Ca9.26Ce0.74Pt3Fe10As18,22.6
15637,Sc4Dy1Ir4Si10,5.95
15639,Li0.5Hf1N1Cl1,26.0
15640,Bi1.8Pb0.4Sr1.85Ca2.05Cu3O10.26,107.0
15641,Gd1Ba1Sr1Cu3O6.93,83.0
15643,Nb0.35Ti0.6Zr0.05,8.6
15645,Li2B1Pd2.4Pt0.6,4.9
15646,Mo1.9Nb0.1B1C1,6.7
15647,La1.85Sr0.15Cu0.982Co0.018O4,8.9
15648,Nb0.76Fe1.61Se0.96S1.04,18.0
15649,Mg0.65Al0.175Li0.175B2,30.7
15650,Sr1Pt1As1,2.425
15651,Sr2Ho1Cu3O,62.0
15652,Mo0.9Zr0.1C1,11.5
15653,V3Si0.52Ga0.48,7.8
15654,Ru0.5W0.5,5.41
15656,Nb0.005Zr0.995,1.86
15657,Hf0.95Ta0.05V2,9.49
15659,K0.28Mo1S2,6.2
15661,La0.95Nd0.05Pt1Si1,2.76
15662,Ce0.7Pr0.3Ru2,5.11
15663,Be0.89Cu0.11,1.11
15664,Ge0.72Nb3.28,5.5
15666,Pb0.9Cu0.18Mo6S8,13.65
15667,Ba1Pb0.65Hg0.1Bi0.25O3,10.0
15669,Li1Cu2P2,1.85
15670,In6Sn94,3.6439999999999997
15671,La1Fe1As1H0.6O0.6,35.0
15672,Yb1Ga1.1Si0.9,2.4
15673,La1.87Ce0.13Cu1O4,21.83333333
15674,Ba0.13W1P3,1.9
15675,Ba0.677K0.323Fe2As2,37.0
15677,Pb2Sr2Y0.53Ca0.47Cu3O8,76.0
15678,Eu1Fe1.78Ir0.22As2,21.0
15679,La1.65Nd0.2Ca0.122Ba0.028Cu1O4,27.1
15680,Yb1Pd2Ge2,1.17
15681,Nb0.1Hf0.9N1,5.47
15682,Pr1Fe1As1F0.082O0.918,14.6
15684,H0.04Ta0.96,3.62
15686,Au1Ge1,1.35
15688,Sm1Fe1As0.8P0.2F0.12O0.88,15.6
15689,Nb75Ga5Al20,18.25
15691,In0.15Nb3Sb0.15Sn0.7,16.09
15692,La2Ca2Ba2Cu3O13.712,76.0
15693,Re2Th1,5.025
15694,Y0.8Ca0.2Ba2Cu2.8Ni0.2O6.77,64.0
15695,La1Ni1As1F0.12O0.88,3.59
15696,Bi3Rh1,3.175
15697,Nb78.5Sn2.2Al12.8Ge6.5,17.0
15698,Eu0.5K0.5Fe1.94Ni0.06As2,23.0
15699,Sr1Si1.8Ni0.2,2.6
15700,Rh0.33Zr0.66,11.2
15702,La0.9Ca0.1Fe1P1O1,5.67
15703,Nb80Ga15Co5,9.17
15704,Rb0.1W1O2.9F0.1,3.6
15705,Ta0.36Ti0.64,7.53
15706,Ir0.287O0.14Ti0.573,5.5
15708,Na0.24Co1H2.6O3.3,3.51
15709,Mn0.025Ti0.975,2.33
15710,Th1Ir0.1Os1.9,2.25
15711,Y1Ba2Cu2.88Zn0.12O6.92,53.0
15712,Tl0.8La1Sr1Cu1.2O5,37.0
15713,Pb1Mo6S8,12.45
15715,Ca1Fe1.854Co0.146As2,16.8
15716,Cr0.2V0.8,1.1866666670000001
15718,La0.06Th0.94Pb3,5.58
15720,Ba2Bi2.25Sb0.75,4.06
15721,Y1Ba1.9K0.1Cu3O6.9,91.5
15722,Y1Ba2Cu2.95Al0.05O6.93,91.0
15725,La1Ni0.84Bi2.04,4.41
15726,Y1Ba2Cu3S1O6,89.5
15727,Lu0.8Gd0.2Ru1B2,4.84
15728,As1Sn1,3.755
15729,La1.858Ba0.142Cu1O4,29.0
15734,Tl2Ba2Cu1O6.056,40.0
15735,Lu1Ni1.89Co0.22B2C1,7.5
15736,La1.5Nd0.5Ca1Ba2Cu4.5Mo0.5O11.119,50.0
15738,Y1Ir2Si2,1.9491666669999999
15739,Ba1Pt3.25Au0.75Ge12,6.25
15740,Al3Nb3,18.4
15742,La1.8Sr0.2Cu0.9676Zn0.0324O4,5.5
15743,Sm1.15Gd0.7Ce0.15Cu1O3.97,16.8
15744,La0.9Nd0.1Pt2.1B2.4C1.2,9.4
15745,Mo0.7Pt0.075Re0.225,7.4
15747,La0.84Mo6Se8,9.4
15748,Au1Be1,1.775
15749,In1Mg2,3.2
15750,V2.97Nb0.03Si1,15.8
15751,Y2La0.6Ba3.4Cu6O14.02,60.0
15752,La1Fe0.925Ir0.075As1O1,11.85
15756,Y0.7Ca0.3C2,2.4
15757,N0.89Nb1,12.1
15759,Bi2Sr2Ca1Cu2O8.11,86.45
15760,Nb0.2Zr0.8,8.6
15762,Y1Ba2Cu3H0.92O6.91,80.8
15763,La1.842Nd0.008Sr0.036Ba0.114Cu1O3.98,31.7
15765,Bi0.015In0.985,3.725
15767,La0.5Th0.5Ni1C2,7.9
15768,Rb0.8Fe1.7Se2,31.875
15770,Gd0.55Ca0.35Hf0.15Ba2Cu3O7.06,76.0
15772,Mg1B1.96F0.04,30.0
15774,Cr0.8Re0.2,1.31
15775,Y0.8Ca0.2Ba2Cu3O7,71.6
15776,La2Rh3Sn5,1.85
15778,Pb0.6Cu0.4Sr1La1Cu1O5.19,25.1
15779,Ba1Fe1.28Ru0.72As2,8.95
15780,Fe1Se0.1Te0.9,10.03333333
15782,Nb3Sn0.56Ge0.44,6.8
15783,Hf1Os1P1,5.815
15784,Rb0.75Fe1.6Se1.75S0.25,24.0
15785,La1.943Sr0.13Cu1O4,33.3
15786,Y0.85Pr0.15Ba2Cu3O6.98,79.2
15787,Zr1V1Ge1,6.0
15788,Nd1Fe1As0.2P0.8F0.1O0.9,6.98
15790,Cs0.8Fe2Se1.96,28.5
15791,Pb0.5Sr2Ca0.5Gd0.5Cu2.5O7,60.0
15792,Nb99.445O0.555,8.5
15793,Hg1Ba2Ca1Cu2O6.1,92.5
15795,Lu1Ir2Rh2B4,3.08
15796,Ir0.82Rh0.12Se2,7.96
15797,Nb3Al0.8In0.2,18.1
15800,Cu6.5Sr2Ca5Cr0.5O15.17,32.0
15801,Ir0.37Rh0.57Se2,9.09
15802,Pb0.9Pt0.1Te2,1.65
15803,Gd0.9Hf0.1Ba2Cu3O6.88,84.2
15804,Sn0.855Ge0.095In0.05Te1,1.48
15806,Yb1Ba1.4Sr0.6Cu4O8,80.0
15808,Ba0.833K0.167Fe2As2,7.0
15809,Y0.9Ba2Cu3O6.58,93.4
15812,Sr0.95La0.05Cu1O2.01,42.4
15816,Al2La1,2.218428571
15817,Au0.2Pd1.8In1Y1,1.24
15818,Hg4Na1,3.05
15819,Mg1B1.92C0.08,38.3
15823,La1.14Nb2Se5.14,5.3
15825,Tm2Rh3Sn5,1.8
15826,Nb3Ga0.85Al0.15,17.1
15827,Mg0.6Zn0.2Al0.2B2,7.5
15829,C1Re0.06W1,5.0
15830,Tl2Ba2Cu1O6.12,87.8
15831,La1Fe0.7Ru0.3As1F0.11O0.89,17.75
15833,Ca0.5Nd0.5Ba1La1Cu3O7.17,41.4
15834,Ca1Al1.3Si0.7,4.5
15836,Tl1Sr2Ca0.6Gd0.4Cu2O7,65.0
15838,Sm0.65Th0.35Fe1As1O1,53.0
15839,Ba1Fe1.79Zn0.12Co0.09As2,3.37
15840,Cu1S2,1.5325
15841,Hg0.7Cr0.3Sr2Cu1O4.6,53.0
15842,Y0.95Ca0.05Ba2Cu4O8,85.16
15843,Pt2.2Y1,1.7
15845,Er1Ba2Cu2.82Ni0.18O7,65.0
15847,La0.999Gd0.001Al2,2.78
15848,Nb2.706V0.294Al1,15.6
15849,C1Hf0.4Nb0.6,5.6
15850,Y0.9Ca0.1Ba2Cu3O6.4,41.8
15852,Bi2Sr1.34La0.66Cu1O6,20.0
15854,La0.9997Ce0.0003Pt1Si1,3.2
15855,Pd2Y0.95Tm0.05Sn1,4.12
15856,Tl1Sr1.7Ca0.3Yb1Cu2O7,55.0
15858,Hg1Ba2Cu1O4.117,82.0
15860,Cu0.7Nb0.3,9.39
15861,Y1La0.2Ba1.8Cu3O7.77,89.8
15862,Mg1B1.792C0.208,25.5
15864,Y0.4Pr0.6Ba1Sr1Cu3O6.92,18.0
15865,Eu0.6Pr0.4Ba1.7Sr0.3Cu3O6.93,28.0
15866,Y1Ba2Cu2.835Fe0.165O6.98,69.3
15868,Tm1.4Y3.6Rh6Sn18,3.14
15869,Pr1Pt1.5Au0.6B2C1,6.0
15870,Pr1Pt4Ge11.5Sb0.5,4.43
15872,Y2Ba4Cu7O14.78,70.0
15873,Y0.6Ca0.4Ba1.4La0.6Cu3O7.07,83.0
15874,Rh0.035Zr0.965,5.0
15875,Er0.8Y0.2Pd2Sn1,2.08
15876,Ba1.6Sr0.4Yb0.95Ca0.05Cu3O6.76,80.0
15877,Nb0.9Zr0.1,10.7
15879,Nd1.85Ce0.15Cu0.985Fe0.015O4,6.5
15880,Eu1Ba2Cu3O6.5,92.0
15881,Nb2.7Mo0.3Al1,11.85
15882,Th1.4Lu0.3C3,11.7
15883,Mg1C1Ni2.7Fe0.3,6.88
15884,Nd0.9Ca0.1Ba2Cu3O6.63,84.5
15885,Nb0.75Al0.16Ga0.09,19.45
15886,Bi1.65Pb0.35Sr2Ca2Cu3O10,108.6
15888,Co35Zr65,2.48
15889,Hf0.5Ta0.5,6.28
15892,Fe1Te0.69Se0.25S0.06,11.3
15895,Lu0.55Tm0.45Ru1B2,2.94
15898,Sn0.956In0.044Te1,1.0170000000000001
15899,Mo1.85Nb0.15B1C1,6.2
15900,Y1Ba2Cu2.7Co0.3O6.88,22.0
15901,Bi1.95Sr1.45Nd0.6Cu1O4,18.0
15902,Gd0.95Mo0.05Ba2Cu3O6.948,82.4
15903,Y1Ba2Cu4O6.998,90.5
15904,Pr0.8Sr0.2Fe0.8Co0.2As1O1,11.5
15906,Y0.6Ca0.4Ba1.1La0.9Cu3O7.18,47.0
15907,Re0.6Ta0.4,1.4
15908,Bi2Sr2Ca0.7Gd0.3Cu2O8,48.0
15910,Dy1Ba2Cu2.9Zn0.1O6.96,44.0
15911,Ti0.03V0.97,5.58
15912,Ti0.65Zr0.35,1.37
15913,Bi1.6Pb0.4Sr6Cu3C2O16,54.0
15914,Y1Ba2Cu3S0.12O7.28,89.0
15916,Cu5.5Sr2Ca4Cr0.5O13.35,65.0
15919,Be0.957Re0.043,9.645
15921,Er1Ni1.96Co0.08B2C1,4.2
15922,La1.52Nd0.4Sr0.08Cu1O4,7.98
15923,Mo3Al2C1,10.0
15924,Tl0.45Bi0.46Mo6S7.5,6.41
15925,Bi1.8Pb0.2Sr2Ca1Cu1.88Co0.12O8,38.8
15926,Ba1Fe2As1.3P0.7,30.25
15927,Er1Ba2Cu2.7Zn0.12Fe0.18O6.95,23.0
15928,Au0.12Zr0.88,2.78
15931,Nb0.65W0.35C1,13.0
15933,Ti2.01Nb0.99Sb1,1.96
15934,Nb0.625Sn0.25Ta0.125,17.6
15936,Bi0.16Pb0.4Sr2Ca2Cu3O10.11,105.3
15938,La1.5Ba1.3Ca0.2Cu3O7.002,16.0
15939,In0.69Tl0.31,2.98
15940,Ni0.05Ta1S2,2.6775
15941,Ba8Si44Al2,5.85
15942,Li0.62Cs1Ca2Nb3O10,4.71
15943,Ru0.99Ti0.01Sr2Gd1Cu2O8,36.3
15945,Nb80Si16C4,4.5
15946,Pd0.95Pt0.05Te2,1.71
15947,La1.8Sr0.2Cu0.98Ru0.02O4,15.6
15949,Y1Ba2Cu3OY,92.3
15950,Y1Ba2Cu2.925Zn0.075O6.85,63.6
15951,Mg0.98Ir0.02B2,33.2
15952,Th1Ir0.8Ru1.2,2.53
15953,Bi1La4Pb2,2.5
15954,Y0.4Ca0.3Pr0.3Ba2Cu3O7.02,53.6
15955,Sr2Mg0.5Ti0.5Fe0.95Co0.05As1O3,26.2
15956,La1Ru2P1.6B0.4,2.0
15958,Al0.05Nb3Sn0.95,18.0
15959,Mo5Pb1S7,12.5
15961,Ge0.4Cu0.6Sr2Ca1.8Y0.2Cu3O9.3,81.0
15962,Nb25Ti65Mo10,6.8
15963,Nb3Sn0.8In0.2,17.8
15964,Y1Ba2Cu2.955Fe0.045O6.89,72.0
15965,Mg0.94Ir0.06B2,28.1
15966,Hf0.76Nb0.25,4.2
15968,La3Ru8B6,3.15
15971,H0.938Pd1,5.523
15973,Ba0.66K0.34Fe1.8Co0.2As2,19.0
15975,Y1Sr2Cu2.7Co0.3O6.7,27.0
15976,Ta0.24V0.76,3.58
15978,Bi1Sr0.8Nd0.2Cu1OY,14.79
15980,Bi2Sr2Ca1Cu2O8.428,42.1
15981,La1Fe1As1O0.6,24.4
15983,Er1Rh2.4Ir1.6B4,7.56
15985,La0.75Y00.25,2.5
15986,Be0.98Re0.02,9.6
15987,Nd0.95Pr0.05Ba2Cu3O6.75,45.8
15989,Y1Ni1.6Cu0.4B2C1,10.6
15990,Ca4Al2Fe2As2O5.65,26.8
15991,Nb0.92Ta0.71,4.94
15993,Nb0.25Mo0.75C1,13.1
15994,Ca9.58Y0.42Pt3Fe10As18,18.6
15995,Be5Ga1,5.8
15996,La1Pt0.3Ni0.7Si1,1.655
15997,Al0.152Sn0.848,3.6835
15998,Y1Ba2Cu3.8Co0.2O8,50.0
15999,Ba0.65K0.35Bi1O3,28.2
16001,Y0.9Ca0.1Ba2Cu3O6.87,85.4
16002,Ba1Pt3.75Au0.25Ge12,5.05
16003,Mo64Re16P10B10,8.71
16004,Lu4Rh6Sn19,4.0
16006,Zr2Co0.8Ga0.2,5.29
16007,Hg0.5Fe0.5Sr2Y0.2Ca0.8Cu2O6.63,63.5
16008,Hg1Ba2Cu0.97Zn0.03O4.081,83.0
16010,Eu1.5Ce0.5Sr2Ru1Cu2O10,34.0
16011,Y0.5Pr0.5Ba2Cu3O6.76,4.0
16012,La0.1Th0.9,1.48
16015,La1Ba1Sr1Cu3O7.01,41.5
16017,Ca0.92La0.08Fe8.6Pd4.2As18,13.5
16018,W0.054Zr0.946,3.88
16020,La1Ni0.95Cu0.05C2,3.15
16021,Nb0.6Ta0.4,6.56
16022,Be1W1,4.1
16023,Ca0.4Nd0.6Fe1As1F1,54.0
16024,K0.4W1O3,1.74
16025,La2.58Pr0.42S4,2.69
16026,Dy1Ba2Cu3O6.79,90.0
16027,Sr2Ca3Cu4F2O8.6,38.0
16028,La3Pr0.6In1,3.2
16029,Ba0.59K0.41Bi1O2.96,20.4
16032,La1.75Sr0.25Cu0.94Fe0.06O4,30.5
16033,Sc5Ir4Si10,8.311428571
16034,Hg0.8Cr0.2Ba2Ca1Cu2O6.1,112.5
16036,Nb0.25Sb0.25Ti0.5,2.05
16038,Ga0.7Pt0.3,2.9
16039,Nb3Rh0.9Ru0.1,2.44
16040,La1.87Sr0.13Cu0.995Zn0.005O4,26.44
16042,Zr2Co0.7Ni0.3,5.14
16043,Sn3Zr5,1.9
16044,Pr0.1La1.7Sr0.2Cu1O4,36.0
16045,Y1Ba2Cu3.85O6.85,93.0
16046,Fe1Se0.656Te0.164,10.7
16048,Ru1Sr1.6Ba0.4Gd1Cu2O8,39.0
16049,Ca10Pt0.78Fe9.22As18,9.96
16052,Sr1Pd1.94Pt0.06Ge2,3.22
16054,Ga1P1,8.25
16055,Pd2Hf0.75Y0.25Al1,3.2
16056,La1Fe1As1H0.24O0.76,30.1
16057,Pd0.1Ti0.9,4.335
16059,Y0.75Lu0.25Ni2B2C1,14.9
16061,Pr1Pt4Ge10.5Sb1.5,1.71
16065,Y0.7Pr0.3Ba2Cu3O6.88,47.5
16066,Tl1.63Ba2Ca1.3Cu2O7.94,91.0
16068,Sm0.9Pr0.1Ba2Cu3O6.65,30.6
16069,La1.881Ba0.119Cu1O4,9.3
16070,C0.7N0.3Sr2Cu1O5.55,31.0
16073,C3Er0.1Th1.9,6.8
16074,La1Pt0.1Ni0.9Si1,1.275
16075,B2Re1,6.3
16078,Be22Os0.005Re1,9.8
16080,La1.1Ba1.5Ca0.4Cu3O7.11,77.0
16081,Ta0.96W0.04,3.4
16083,Y1Ba2Cu2.095Al0.095O6.81,83.3
16084,Be22W1,4.12
16087,Gd1Ba1.95Pr0.05Cu3O7.03,86.8
16089,Y2La0.1Ba3.9Cu6O13.94,90.0
16090,Nb2.94W0.06Al1,17.2
16092,Mo0.2Ru0.8,1.66
16093,Nb80Ga16Fe4,10.3
16094,Na1Fe0.975Co0.025As1,21.05
16095,B2Zr1,2.75
16096,Al0.75Ge0.25Nb3,20.2
16097,Fe0.99Zn0.01Se0.3Te0.7,13.0
16098,La1Rh4Si2B1,8.0
16099,Fe0.5Ba1Sr1Y1Cu2.5O7.424,52.5
16100,Nd1Fe0.98Ru0.02As1F0.11O0.89,46.6
16101,Nb0.75W0.25C1,13.1
16102,Ru0.77Rh0.23As1,1.88
16104,Al0.964Ge0.036,2.74
16105,Cs0.86Fe1.66Se2,28.16666667
16106,Sr0.9La0.1Cu0.97Zn0.03O2,38.0
16107,Au0.24La0.76,3.64
16108,Dy1Ba2Cu2.94Fe0.06O6.88,78.0
16109,Ca1.7Na0.3Cu1Br2O2,16.5
16110,Bi1.7Pb0.3Sr2Ca0.6Y0.4Cu1.94Zn0.06O8,53.5
16111,Y0.95Sc0.05Ba2Cu4O8,79.0
16112,Er1Ba2Cu2.95Ga0.05O6.75,90.0
16114,Ni1Sm1,1.6
16115,Y0.8Pr0.2Ba2Cu3O7.3,62.6
16116,Ga25.3V74.7,14.9
16117,Hg1Ba2Ca3Cu4O2,115.0
16119,Al0.1Be0.9,7.2
16121,Ga0.15Nb3Pb0.15Sn0.7,18.11
16122,Nb3Al0.907Ga0.093,19.1
16123,Sm1Fe0.95Ru0.05As1F0.15O0.85,41.0
16125,Nb0.69V0.31,4.9
16128,Nb1C0.9N0.1,16.97
16129,Mg1.9Cu0.1B12,37.3
16131,Y1Ba1.76La0.24Cu3O7.024,73.4
16133,Nb1S2,5.821818182
16134,Y1Re0.05Ba2Cu2.95O7.02,92.0
16135,Ir0.3Rh0.64Se2,8.39
16136,Sr1Cs1Fe4As4,36.8
16138,Y2Ba4Cu7O14.98,88.0
16140,Y1Ba2Cu3.98Co0.02O8,73.3
16143,Y2Pd1Ge2Si1,2.24
16144,Cu0.5P0.5Sr2Ca1.7Y0.3Cu3O9.4,50.0
16145,Fe1Se0.82Cl0.18,10.5
16146,Ba1Ni2As1.846P0.154,3.28
16148,La0.908Tm0.092Sn3,4.18
16149,Au0.41Ge0.59,2.2
16150,Tl1Ba2Ca0.8Gd0.2Cu2O7,93.6
16151,Fe0.36Ni0.64Zr2,2.04
16152,Mo48Ru32P20,6.18
16154,Pd1Te2.1,1.89
16155,Y1Ba2Cu2.85Zn0.15O6.85,47.6
16156,Lu1Ni1.87Co0.26B2C1,6.0
16157,Pr0.65Sr0.35Fe1As0.9Sb0.1O1,21.87
16159,Bi1.8Pb0.2Sr1.35La0.65Cu1OY,27.8
16160,Y1Ba2Cu2.8Fe0.2O6.9,58.8
16161,Tl1Ba2Ca0.7Nd0.3Cu2O7,95.5
16162,Sr1Pd2Sb2,1.25
16163,La1.94Ba0.04Cu1O4,4.0
16164,La1.85Sr0.15Cu0.99Zn0.01O4,28.36
16166,Nb0.76Sn0.74,18.1
16167,Au1Sc1,2.0
16169,Nb70Mo10Si20,4.8
16171,Zr2Co0.85Ga0.15,5.56
16172,Tm1Ni1.92Co0.16B2C1,4.4
16173,Mg1C1Ni2.6Ru0.4,2.14
16174,V3Si0.8Sn0.2,12.85
16178,Y0.2Ca0.4Pr0.4Ba2Cu3O7,36.5
16179,Bi1.08S5.08Ta2,2.7
16180,La0.85Y0.15Ni1C2,2.08
16181,Tl1Ba2Ca0.5Nd0.5Cu2O6.86,40.0
16182,Nd1.3Ba1.7Cu3O6.987,33.0
16183,La1.9Sr0.1Cu0.97Ni0.03O4,3.65
16186,La0.75Sr0.25Cu1O4,14.4
16188,V0.77Si0.21Al0.02,11.7
16190,Ba2Ca2Cu3F1.8O6.2,81.0
16192,La2.5Y0.5Ca1Ba3Cu6.3Fe0.7O16.627,51.0
16193,Nd1F0.5Bi1S2O0.5,4.656666667
16194,Y1Ba2Cu2.7In0.3O6.9,90.0
16195,Na1.5Ba6Si46,2.6
16196,Gd0.001Nb0.999,9.18
16197,La1.75Sr0.25Cu0.98Ni0.02O4,8.1