,composition,Tc
10293,Y0.9Ca0.1Ba2Cu2.75Co0.25O7.03,76.9
10295,Ga25Nb75,17.6
10296,Y1.2Th0.8C2.9,15.8
10297,Nb1Sn1Ta2,10.8
10300,La1.75Nd0.1Sr0.15Cu1O4,31.75
10301,Bi1.8Pb0.3Sr2Ca2Cu3O10,108.0
10302,Bi0.2Pb0.4La1.2Sr1.3Cu1.9O5.78,75.0
10303,Ir1Mo3Nb3Pt1,6.13
10304,Mo0.9Re0.1C1,13.9
10307,Ba0.78K0.22Fe2As2,23.5
10309,La1.25Ca0.5Ba1.25Cu3O7.137,79.2
10310,Nb3Sn0.95Ge0.05,18.1
10311,Sr1Ga1.3Si0.7,3.52
10312,Re0.15W0.85,2.4
10313,Lu0.6Pr0.4Ba2Cu3O7,56.55
10315,Rb0.801Fe1.602Se2,32.4
10318,Ce1Fe1As0.7P0.3O1,4.0
10319,La0.92Tm0.08Sn3,5.17
10320,La1.72Sr0.28Cu1O4,4.98
10321,Bi2Sr1.6Ca1.2Nd0.2Cu2O8.26,86.0
10322,Mg10.5Ir19B17.1,4.8
10324,Sb0.04Sn0.96,3.76
10325,Li1Hf0.45Zr0.55N1Br1,19.0
10326,La1.3Ba1.5Ca0.2Cu3O6.72,48.0
10327,La1.837Sr0.162Cu1O4,36.0
10329,La2.952Gd0.048In1,3.48
10332,N0.85Nb0.66Ti0.34,17.61
10333,Ce1Co1In4.875Zn0.125,2.14
10334,C0.7N0.3Sr2Cu1O5.35,35.0
10335,Cu0.5Zn0.5Ir2S4,2.195
10336,B3Re7,3.19
10337,La1.55Ca0.15Nd0.3Cu1O4,28.0
10338,Nb0.25Ta0.75C1,9.8
10339,Y0.3La0.7Ba2Cu3O6.98,82.0
10343,Al0.108V0.892,1.82
10344,Li0.14Zr1N1Cl1,15.0
10345,Sr2Y1Ru0.92Cu0.08O6,17.6
10346,Nb80Ga17.5Cr2.5,12.5
10347,La1Ni1Si1,1.23
10348,Pr2Ba4Cu7O14.3,21.0
10349,Gd1Ba2Cu2.7Fe0.3O6.9,41.0
10351,Ho0.95Ca0.05Ba2Cu4O8,81.0
10352,C1Pt2W3,1.2
10353,La3Co1Ru3Sn13,5.0
10354,Dy1Ba2Cu2.96Zn0.04O6.9,70.0
10355,Fe0.05Rh0.04Ti0.91,3.9
10356,Y1.8Bi0.2C2.9,9.35
10357,Ba1Fe1.918Co0.044Cu0.038As2,8.7
10359,Al1Cu1,3.45
10360,H0.1La1.89Sr0.11Cu0.995Fe0.005O4,14.0
10361,Fe0.99Co0.01Se0.3Te0.7,13.3
10362,Na0.65Fe1.93Se1.6S0.4,32.0
10363,La1.3Ba1.5Ca0.2Cu3O6.7,20.0
10366,Bi1.7Pb0.3Sr2Ca0.7Y0.3Cu2O8.25,71.5
10367,La1.875Ba0.075Sr0.05Cu1O4,8.8
10369,Mo5.6Ru0.4Se8,5.69
10370,Ca0.76Pr0.24Fe1As0.9Sb0.1,43.0
10372,Cu0.06Ti2Se2,2.0
10373,Y2Ba4Cu7O14.04,36.0
10375,Cs0.1Li0.05W1O2.85F0.15,3.3
10376,Hg0.8Mo0.2Ba2Ca2Cu3O8.4,131.5
10378,K2.9Ba4.9Si46,3.2
10379,Lu1Sc4Ir4Si10,7.655
10380,La2Cu1O4.017,34.7
10381,Sr0.6La0.4Fe1As1F1,27.05
10383,Ca10Pt4.3Fe9.7As18,33.9
10384,Bi2Sr1.3Sm0.7Cu1O6.405,8.0
10385,B5Mo1.69Zr0.31,11.2
10386,Ba0.64K0.34Fe2As2,39.0
10387,C1Hf0.7Nb0.3,6.1
10388,Y2Pd1Ge2.5Si0.5,3.3
10389,Y0.97Ca0.03Ba2Cu4O8,81.9
10391,C1.45La0.5Th0.5,14.2
10392,Bi1Sr0.95Nd0.05Cu1OY,8.01
10393,Nd1Fe1As0.7P0.3F0.1O0.9,29.5
10394,Th0.67Nd0.33Ru2,1.51
10397,Y0.7Pr0.3Ba2Cu3O6.98,57.4
10398,Ca0.25Na0.75Fe2As2,33.4
10400,Zr0.5Hf0.5V2,10.1
10401,Pd32Zr68,2.24
10403,Mo0.93Pt0.17,2.8
10405,Gd1.15Ba1.85Cu3O6.99,48.0
10406,Tl1Ba0.3Sr0.7La1Cu1O5.11,25.0
10407,Mo1Ru1,10.0
10408,Ru22Zr78,3.73
10409,Ba0.64Na0.36Fe2As2,31.0
10410,La0.3Sm0.7Bi1S2F0.5O0.5,5.12
10411,Al1Ce0.0165La3,1.45
10412,La1.7Gd0.3Ba2Ca0.6Cu4.6O10.9,64.0
10413,Bi1.95Sr1.65La0.4Cu1O6.311,35.5
10414,Nd1.7Cu1O4,30.7
10415,Y0.99Gd0.01Rh4B4,10.1
10417,Y2Pd0.3Pt0.7Ge3,2.26
10418,La1Ba1Ca1Cu3O6.856,66.0
10419,Y1Ba1.9La0.1Cu3O6.92,90.0
10420,Ir0.43Rh0.52Te2,2.82
10421,Co15Zr85,3.3
10422,N0.48Nb1,5.5
10423,Ga0.3V0.7,14.1
10425,Pd23Zr77,2.84
10426,V2.49Mn0.42Si1,8.1
10427,Nb25V5Ti70,7.7
10428,Mg1C1Ni2.995Fe0.005,6.44
10432,La1.685Nd0.2Sr0.115Cu1O4,11.0
10434,Ti0.76V0.24,4.382
10436,Ir0.2Si0.05Zr0.75,6.2
10437,Er0.4Tb0.6Ni2B2C1,2.0
10438,Sm0.8Ca0.2Ba2Cu2.8Zn0.2O6.87,45.0
10440,Ta1Se0.8Te1.2,1.165
10442,La0.8Zr0.2Bi1S2O1,1.66
10443,Y1Ba2Cu2.94Zn0.06O6.83,55.0
10444,Bi2Sr1.56La0.44Cu1O6,33.0
10445,Y1Sr2Cu2.85Re0.15O7.1,73.0
10447,Pd0.49Sb0.51,1.44
10448,Pb1S1Yb1S1,6.39
10449,Nd1Fe0.9Ru0.1As1F0.11O0.89,38.7
10450,Hg1Ba2Cu1O4.081,98.0
10451,Y1Ba2Cu2.82Fe0.18O7,74.0
10453,Cu1Rh1.78Sn0.22Se4,1.92
10454,Nb0.5Ti0.5,10.3
10455,Au0.098Pd0.02Ga2,1.51
10462,Sn1Ta3,6.6925
10464,Tl1Ba2Ca0.8Nd0.2Cu2O6.86,100.0
10465,La1.52Nd0.4Ba0.08Cu1O4,11.0
10466,Cu0.8Mo0.2Sr2Y1Cu2O7.3,65.0
10468,Ce0.02La0.98,2.58
10470,La2C2Br2,7.03
10472,Nd1.85Th0.15Cu1O4,22.5
10473,La1.825Sr0.175Cu0.99Ru0.01O4,29.6
10474,Ba0.6K0.4Bi0.925Pr0.075O3,4.5
10475,Er1Ni1.97Co0.06B2C1,6.6
10477,Bi2Sr2Ca0.85Pr0.15Cu2O8,68.35
10481,La7Ni3,2.1
10484,Tl2Ba2Ca2Cu3O9.877,111.0
10485,Ba0.9Rb0.1Fe2As2,23.3
10486,Bi0.5Pb0.5,8.4
10487,La2Sb1,3.025
10488,Y0.4Cd0.6Ba2Cu3O7,91.7
10489,Y1Ba1.9Rb0.1Cu3O6.52,93.35
10490,Y1Ba2Cu3F0.76O6,35.0
10492,Y1Ba2Cu2.697Mn0.303O6.9,63.0
10494,Ba1.6Sr0.4Yb0.65Ca0.35Cu3O6.15,49.0
10495,La1.85Sr0.15Cu0.95Li0.05O4,27.2
10496,Ru0.97Ti0.03Sr2Gd1Cu2O8,40.3
10497,In1Pb1,3.675
10498,Ga0.247V0.753,13.8
10500,Cs0.8Fe1.7Se2,29.2
10501,La2Cu1O4.022,42.0
10502,Mg0.95Fe0.05B2,29.5
10503,Nd1.25Ba1.75Cu3O6.99,52.7
10505,Sr1Fe1.72Zn0.08Co0.2As2,9.41
10509,La1.65Ba0.35Cu1O4,4.2
10512,Y0.3Lu0.7Ir4B4,2.98
10513,Tc0.6V0.4,4.17
10514,Ti0.013V0.987,12.8
10516,La0.81Sm0.06Sr0.13Fe1As1O1,18.5
10517,Li2Pd2.7Ni0.3B1,7.233333332999999
10518,Cu0.67Nb2S2C1,4.85
10519,Ca1Cu0.25Si1.7,3.2
10520,Zr1N1Cl0.7,13.16666667
10524,Ba0.68Na0.32Fe2As2,23.8
10525,Ca9.07La0.93Pt3Fe10As18,22.2
10526,Er1Ba2Cu2.94Zn0.06O6.92,69.0
10527,Nb98.68O1.32,7.85
10529,Ce1Ni0.8Bi2.03,4.2
10530,Eu0.0034La0.9966,3.95
10533,La1Ba1.5Ca0.5Cu3O6.96,79.9
10534,La1.84Ba0.16Cu0.99Ga0.01O4,8.3
10535,Fe2As2Ca5Mg0.8Ti3.2O9.8,39.0
10536,Bi2Sr2Ca1Cu2I0.86O8.242,55.5
10537,Al0.2B5Mo1.8,5.7
10538,Au0.15Te0.85,1.64
10541,Fe0.02Re0.98,1.6
10542,Pb2Sr2Y0.5Ca0.5Cu3F1.0031O7.2608,73.0
10543,Al0.39Mg0.61,1.5
10545,La1.85Sr0.15Cu0.997Fe0.003O4,33.6
10546,Lu1Re1B1C1,6.1
10547,Rh23Zr77,3.66
10548,Re0.76V0.24,4.52
10549,Ho1Rh0.8Ir3.2B4,1.26
10550,Pb0.6Cu0.4Sr1.1La0.9Cu1O5.12,31.0
10551,Gd1Sr2Ru0.95Cu2.05O8,26.05
10552,Tm1Ni1.88Fe0.12B2C1,5.52
10553,Cu1Co1.95Ir0.05S4,2.13
10555,Ru2Th1,3.68
10556,Tc0.5W0.5,7.52
10557,Ca1Fe1.75Co0.25As2,14.1
10558,Hf1Ta1C1,7.9
10559,Ni2Hf1Ga1,1.12
10560,Be22Ga1,5.7
10561,Y1Ni1.95Cu0.05B2C1,14.7
10564,Dy0.5Pr0.5Ba2Cu3O6.85,19.0
10566,C1.35La1,11.0
10567,Cu1Co1.8Cr0.2S4,2.7
10568,Ge1.62Y1,2.4
10569,Ru0.8Sn0.2Sr2Eu1Cu2O8,30.3
10572,Cr0.72Os0.28,3.906
10573,Pr0.7Nd0.3Os4Sb12,1.27
10574,Mo0.59Si0.41,1.34
10575,Y1La0.2Ba1.8Cu3O7.36,89.1
10577,C1Ta0.5W0.5,10.1
10578,Ga0.15Nb3Sb0.15Sn0.7,16.89
10580,Y1Ba2Cu3.9Ni0.1O8,52.6
10581,Ca0.9Pr0.1Fe1As2,20.0
10582,La3.1Y0.2Ca0.4Ba3.3Cu7O16.529,55.0
10583,Si21.75V69.43,16.2
10584,Y3Pt4Ge6,2.6
10585,Ir0.76Rh0.18Se2,8.09
10586,Y1Ca1Ba4Cu5N0.3C0.7O14,82.0
10587,Y1Ba1.7K0.3Cu3O6.54,92.85
10588,Mg1C0.977Ni3,7.0
10589,Bi2Cs1,4.75
10590,Cu0.75Zn0.25Ir2S4,3.3
10591,Mn0.02Ti0.98,1.9
10592,Nb2B1N1,4.4
10593,Cs0.5Nb1S2,2.8
10596,Y1Re1B1C1,4.7
10597,Y0.5La0.5Ba2Cu3O7.01,86.0
10598,Bi2Sr2Ca1Cu2O8.194,92.0
10599,Tl2Ca2Ba2Cu3O10,118.975
10600,Ba0.34K0.66Bi1O3,7.0
10601,Eu1Ba2Cu2.85Ga0.15O6.76,43.0
10602,Cr4.84Ga25V70.16,12.14
10603,La0.3Ce0.7Ru2,2.134
10604,Bi1.95Sr1.45La0.6Cu1O4,24.0
10605,Hg1Ba2Cu1O4.31,78.0
10606,Tm1Ni2B2C1,9.658999999999999
10608,Eu1Ba2Cu3O6.94,93.6
10609,Pr1.91Ce0.09Cu1O4,21.5
10610,C0.985Nb1,12.0
10612,V3Ge0.8Al0.2,11.02
10613,Bi4Sr3Ca1Y2Cu4O16,64.1
10615,Tl2Ba2Cu1O5.94,58.0
10617,Hg0.85Re0.15Ba1.6Sr0.4Ca2Cu3O8,130.3
10618,La2.98Ce0.02In1,8.2
10620,B1Mo1.5Ta0.5,1.815
10621,Ba1Si2,5.3
10622,Zr2Co0.85Cu0.15,5.88
10623,La13Ga8Sb21,2.4
10624,Lu5Ir2Rh2Si10,5.45
10625,Mo0.3Si1,11.7
10626,Nb0.11Re0.78Ta0.11,8.8
10627,La3Pd4Ge4,2.4933333330000003
10628,Ba1Fe1.82Ru0.18As2,25.8
10629,Ca1Al0.3Ga0.7Si1,3.0
10630,La0.9Y0.1Co2B2,4.175
10632,Cr0.055V0.945,1.89
10634,Nd1Ba2Cu3O6.93,91.5
10635,La1Fe0.999Mn0.001As1F0.11O0.89,10.33666667
10636,Pb0.445Sn0.445In0.13Te1,3.2
10637,Y1Ba2Cu2.94Fe0.06H0.4O7,47.0
10639,Pd1Te2.3,1.85
10642,C0.74W0.26Si1,3.3
10643,Zr0.12N1Cl1,12.7
10645,Ba1.6Sr0.4Yb0.75Ca0.25Cu3O6,22.0
10647,Nb75Ga7.5Al17.5,18.3
10648,Ba1Fe1.889Co0.102Cu0.009As2,20.95
10650,La1Fe1As0.2P0.8F0.05O0.95,10.87
10651,Y1Ba2Cu3O6.937,84.8
10652,Rb0.5Nb1S2,1.8
10653,La1.85Sr0.15Cu0.982Ni0.018O4,22.5
10655,Er1Ba2Cu2.82Fe0.18O6.97,72.0
10656,Na0.31Co1H2.6O3.3,4.27
10657,Zr31V61.8Nb7.2,9.65
10658,Sn0.714Ge0.126In0.16Te1,2.23
10659,La1Fe0.75Ru0.25As1F0.11O0.89,17.6
10660,Bi2Sr2Cu1O6.13,16.0
10662,Ba1Fe2As1.6P0.4,9.758333333
10664,Mg0.91Al0.09B2,34.7
10665,Pd0.05Ti0.95,4.64
10666,Tl1La1Sr1Cu1O5,34.0
10667,Rb0.33W1O3,2.27
10668,Y0.7Pr0.3Ba2Cu3O7,56.8925
10669,Y1Ba2Cu3O6.64,59.53333333
10671,Y0.55Pr0.45Ba2Cu3O6.65,30.7
10673,Co3Th7,1.815
10674,Y0.9Ca0.1Ba2Cu2.85Co0.15O6.91,84.0
10675,K0.46Ti1N1Br1,16.3
10676,Nb0.15Mo0.85C1,11.673
10678,Ga0.1V2Al20,1.53
10680,Ba8Si43Al3,5.75
10681,Y1Ba2Cu2.961Zn0.039O6.78,42.9
10682,Au1Pb3,4.325
10683,Th0.3Zr0.7,2.7
10684,Sr1Fe1.75Pt0.25As2,16.3
10685,Ru0.99Co0.01Sr2Gd1Cu2O8,25.5
10686,La1.8Nd0.1Ba0.1Cu1O4,22.0
10687,La2.6Ba3.4Cu6O14.06,26.0
10688,Na0.8Hf1N1Cl1,19.0
10689,Pb2Cu0.9La1.1Cu2O6.19,19.8
10690,Sc5Co4Si10,4.81
10691,Y0.55Pr0.45Ba2Cu3O6.98,33.6
10693,Y1Ba2Cu2.94Ni0.06O6.64,43.1
10694,La0.94Mo6Se8,11.0
10695,Sm1Ni0.78Bi2.08,4.2
10696,Al1Nb2.1V0.9,12.5
10697,Nb1C0.28N0.78,17.9
10698,La2.706Pr0.294Tl1,5.25
10699,La1.84Sr0.16Cu0.99Fe0.01O4,32.5
10700,Y1Mo6Se8,6.38
10701,Y1Ba2Cu2.93Fe0.03O7,90.1
10702,Cu1.8Mo6S8,10.4
10703,Ga1Sr2Ca3Cu4O11.5,63.0
10704,H0.34Nb0.72Pd0.28,1.64
10705,Er1Ba2Cu3O6.82,92.4
10706,Er1Ni1.9Co0.1B2C1,3.1
10709,Bi1.95Sr1.75La0.3Cu1O4,33.0
10711,Gd1Fe0.7Ir0.3As1O1,11.6
10712,Mo6Se5I3,4.2
10713,Ag2In1,2.11
10714,La1.48Pr0.37Sr0.15Cu1O4,34.0
10715,Bi2Sr2Ca1Cu2I0.25O8.21,71.6
10719,Y1Sr2Cu2.7Fe0.3O7.1,51.0
10720,Pb2Sr2Ho0.5Ca0.5Cu3O8,75.56666667
10722,Ir0.5Te0.5,3.0
10723,Co0.017V0.983,3.28
10724,Y1Th1C2.7,15.5
10725,Mg1Co1Ni2.91Co0.09,6.0
10726,Ir1Zr2,7.365
10727,Bi1Re2,2.2
10729,Al0.1V0.9,1.96
10731,La0.85Y0.15,3.06
10733,Ce0.1Nd0.9F0.5Bi1S2O0.5,4.68
10734,Pr0.8Sr0.2Fe0.97Zn0.03As1O1,13.0
10736,Mo0.35Pt0.075Re0.375,10.6
10737,Ca0.85Nd0.15Fe1As2,14.0
10739,Mo3P1,5.936666667000001
10741,Sc0.5Lu0.5Ni2B2C1,15.6
10742,La1Rh1Bi1,2.36
10744,Gd0.51Pr1.34Ce0.15Cu1O1,12.1
10745,La1Ba1.2Ca0.8Cu3O6.95,74.0
10746,Y1.4Th0.6C2.8,16.3
10747,Rh0.1Ti0.9,4.0
10748,Cs1Sr1Bi0.25Pb0.75O3,7.5
10749,Lu0.88Gd0.12Ni2B2C1,7.3
10750,Mg0.98Co0.02B2,37.4
10752,Ca9.06Gd0.94Pt3Fe10As18,25.0
10753,La1.885Sr0.115Cu0.9925Zn0.0075O4,12.45
10754,La1.79Sr0.21Cu0.96Mn0.04O4,37.0
10755,Zr2Rh1H0.1,10.8
10756,Y0.5Lu0.5Ir4B4,3.21
10758,Sr0.2La1.8Cu0.98Mn0.02O4,32.0
10759,C2Lu1,3.33
10760,Y1Ru1B2,7.7
10761,Nd0.8Sr0.2Fe1As1O1,13.5
10762,Nb0.938Ta0.062,8.42
10766,Ga0.8In0.2V3,12.7
10768,Y1Ba1.8La0.2Cu3O7.03,88.85
10769,Mg0.89Li0.11B1.88C0.12,29.9
10770,As1Bi1Pb1,9.0
10771,Pb1Pt1,7.2
10772,La3Ru4Sn13,2.65
10773,Er1Ba2Cu2.88Co0.12O6.78,46.0
10774,Mg0.23Al0.77B2,5.1
10777,Pr0.2Ca0.8Ba1La1Cu3O7.1,33.5
10778,Bi2Sr1.6Sm0.4Cu1O6.3,17.0
10779,Y2Pd0.5Pt0.5Ge3,2.42
10782,K0.8Fe1.996Co0.004Se2,22.0
10783,V50Ti49Ta1,4.51
10784,U1Pd2Al2.85Ga0.15,1.15
10785,Nb0.45Rh0.55,3.07
10786,Hg0.9Pb0.1Ba2Ca2Cu3O8.25,118.0
10787,Er0.76Ca0.24Ba1.6Sr0.4Cu2.76Co0.24O6.88,77.0
10788,La1.785Nd0.1Sr0.115Cu1O4,27.0
10789,Hf0.08Ta0.92,5.38
10790,Bi0.2Pb0.3La1.3Sr1.2Cu2O5.78,50.0
10791,Hf0.16Ta0.84,5.98
10796,Y0.92Gd0.08Ru2,2.2
10797,N0.72H2.16Na1K3C60,12.0
10798,Ba0.95Na0.05Ti2Sb2O1,3.14
10799,La1.25Ba1.55Ca0.2Cu3O7.16,68.5
10801,Y0.8Ca0.2Ba2Cu3O6.7,76.7
10802,Y0.9Ca0.1Ba2Cu3O6.66,80.0
10803,Y1Ba2Cu3H0.14O6.91,90.95
10805,Ca10Pt3.213Fe9.787As18,4.3
10807,Nb0.625Sn0.25V0.125,14.2
10808,Fe1Se0.3Te0.7,14.33333333
10811,Lu0.85Pr0.15Ba1.7Sr0.3Cu3O6.91,77.0
10812,Tm1.2Pr0.8Ba4Cu7O14.652,50.0
10813,La98Lu2,4.643
10814,Bi1.9Pb0.1Sr2Ca1Cu2O8.2,73.5
10815,Sn0.84In0.16Te1,2.2175
10816,Nb0.6Ru0.4Sr2Eu1.5Ce0.5Cu2O10,37.3
10819,La1.83Sr0.17Cu0.96Ni0.04O4,7.233333332999999
10822,B2Nb0.5,7.56
10823,Sr1.4Ba0.6Cu1F2O2,64.0
10824,Bi3Sn1,3.77
10826,Hg0.8Ti0.2Ba2Ca1Cu2O6.2,127.0
10831,La2Cu1O4.054,29.1
10832,Er1Ni1.96Fe0.04B2C1,8.355
10833,Y0.6Pr0.4Ba2Cu3O6.965,35.0
10835,Sc0.01V0.99,5.67
10837,Y0.6Pr0.4Ba1.4Sr0.6Cu3O6.83,45.0
10838,Fe3Re2,6.55
10841,Y1Ni1.34Pd0.66B2C1,10.4
10842,Lu0.95La0.05Ni2B2C1,15.3
10844,Nb0.73Al0.255Si0.015,18.7
10845,Y1Ba2Cu2.95Fe0.05O6.55,17.8
10846,Lu0.32Dy0.68Ni2B2C1,2.0
10847,Nd1.85Ce0.15Cu0.996Co0.004O4,10.4
10848,La1.92K0.08Cu1O4,21.0
10850,Ir1Nb3,1.4075
10851,La1.45Ca0.15Nd0.4Cu1O4,27.5
10852,B6Nd1,3.0
10853,Sm0.7Pr0.3Ba2Cu3O6.8,5.0
10854,Pb0.7Yb0.3Mo6Se8,10.2
10856,Bi2.15Sr1.68Ca1.17Cu2O8,80.0
10857,Y1Ba2Cu3O6.375,19.0
10858,La0.87Sr0.13Fe1As1O1,22.06666667
10859,Ga1Nb3,16.88888889
10862,Ce1Fe0.93Co0.07As1H1,23.0
10865,Ca0.1Ba1.65La1.25Cu3O7.08,45.9
10866,Y0.8Ca0.2Ba2Cu2.8Zn0.2O6.73,43.0
10867,Cs0.96Bi4Te6,4.4
10868,H0.2La1.8Sr0.2Cu1O4,32.0
10870,Ba1.6Sr0.4Yb0.65Ca0.35Cu3O6.63,77.0
10872,Y0.65Ca0.35Sr2Cu2Ga1O7,27.0
10873,Y0.71Er0.29Rh4B4,10.0
10874,Sc2Fe3Si5,4.57
10875,Al0.215Nb0.785,17.97
10876,Ba1Nb2Se5,2.5
10877,Pt0.5W0.5,1.45
10878,La1.2Ba1.8Cu3O7.2,27.0
10879,Ca1Fe2As1.925P0.075,13.0
10880,Ce1Ir5,1.82
10882,Mg1C0.814B0.111Ni3,6.88
10885,Tl0.63K0.37Fe1.78Se2,28.4
10886,Al0.9Ge0.1Nb3,18.9
10888,Cr0.25V0.75,1.36
10889,La1.85Sr0.15Cu0.97Ru0.03O4,10.8
10890,La1.8Gd0.2Ba2Ca0.4Cu4.4O10.344,39.0
10891,C0.148N0.638Ta1,12.01
10892,Y0.6Pr0.4Ba2Cu3O6.9,32.0
10897,Bi1.6Pb0.4Sr2Ca2Cu3O10,108.0
10898,Y1Ba2Cu2.85Zn0.15O6.95,39.2
10901,Er0.9Hf0.1Ba2Cu3O6.862,82.9
10902,Cu0.055Ti1Se2,2.24
10903,Mo0.1Nb0.72Pd0.18,1.45
10905,Sc0.1Y0.9Ir3.6Rh0.4B4,3.45
10906,Ba1Fe1.958Rh0.042As2,5.41
10907,Bi2Sr2Ca1Cu2O8.212,73.0
10908,La1.81Sr0.19Cu0.995Zn0.005O4,29.0
10910,Cu0.05Rh0.04Ti0.91,2.5
10911,Ca4Rh6Pb19,3.3
10913,V0.7Zr0.3,8.6
10915,La2.25Ca1.5Ba2.25Cu6O13.93,74.0
10916,Ca1Tl3,2.04
10918,Fe0.98Cu0.02Se0.88,4.0
10919,H0.51Mo0.1Nb0.765Pd0.135,5.46
10920,Sm1.2Mo6S8,2.4
10922,La1.87Sr0.13Cu0.99Zn0.01O4,18.83
10923,Y1.2Ba1.8Cu3O6.68,92.3
10924,K0.1Li0.02W1O2.88F0.12,1.1
10925,La2Cu1O4.086,45.2
10927,Bi0.2Pb0.8,8.15
10928,Sm1Fe0.97Ni0.03As1F0.12O0.88,34.5
10930,Ba0.68K0.32Fe1.954Co0.046As2,35.0
10931,B2.26Nb1,9.2
10932,Mo3O5,7.2
10933,Nd1Ba1.6Sr0.4Cu3O6.94,86.0
10934,Nb3Rh0.02Pt0.98,9.6
10935,Ca2Cu1Cl2.4O2,38.0
10940,Cu0.78Zn0.22Ir2S4,3.3
10941,Y1Ba2Cu2.775Zn0.225O6.93,25.0
10942,Sm1Ba2Cu3O6.858,90.0
10943,Sm1Fe1As1H0.19O0.81,55.3
10944,Pb0.7Hg0.3Sr4Cu2C1O10,68.0
10945,La0.65Ca0.05Pr0.3Ba1.5Sr0.5Cu3O6.896,14.0
10948,Mg0.47Tl0.53,2.75
10950,Al0.28Mg0.18,1.63
10952,La1Fe1P1F0.06O0.94,6.8
10956,Cu7.5Sr2Ca6Cr0.5O17.1,10.0
10957,Ba0.55K0.45Fe2As2,30.1625
10958,Cs1.2Tl2.4C60,29.5
10959,Zr29.8V59.4Nb10.8,9.58
10960,Y0.9La0.1Ba2Cu3O6.97,91.0
10961,Y0.9Ca0.1Ba2Cu3O6.6,65.3
10962,Y0.6Pr0.4Ba2Cu3O6.5,14.9
10965,C1Ir1Mo3,3.2
10966,Eu1Fe1.76Co0.24As2,2.0
10967,Fe1Se0.45Te0.55,12.6
10968,Lu0.8Tm0.2Ru1B2,7.295
10969,Tl1.4Ba2Ca3Cu4O11.4,118.0
10971,Ce1Co1In4.9976Hg0.0024,2.252
10972,Cr0.1V0.9,2.6125
10973,Co0.5Ni0.5Zr2,3.155
10974,La1.9Sr0.1Cu0.99Zn0.01O4,11.59
10978,Hg0.8Mn0.2Ba2Ca1Cu2O6.2,114.0
10980,Er0.187Ho0.813Rh4B4,6.43
10981,V0.5Sr2.6Ca5.4Cu7.5O17.3,73.0
10982,Ce1Co0.875Ni0.125In5,1.41
10984,Y1Pt1.5Au0.6B2.4C1.2,5.8
10985,Sm1Fe1As1F0.6O0.6,55.0
10986,Pb1.9Rh1,1.32
10987,Nb0.22U0.78,2.01
10989,Ba1.6Sr0.4Yb1Cu3O6.75,60.0
10990,N0.8Nb1,8.9
10991,Gd1Ba2Cu3H1.32O6.89,78.2
10994,Sb0.08Sn0.92,3.89
10995,Eu0.7Pr0.3Ba2Cu3O6.95,38.8
10997,Rb0.2W1O3,4.126666667
10999,Si10.9V3B0.1,15.8
11001,Y1Pd3B3C0.3,22.0
11002,Er1Ba2Cu2.79Zn0.03Fe0.18O6.97,44.0
11003,Ho1Ni2B2C1,7.532352941
11004,Y1Sr2Cu2.65Ti0.35O6.8,21.0
11005,Tl1Ba0.4Ca0.6La1Cu1O5,16.0
11007,Sn1.2Mo6.35S8,10.7
11008,Cu19.8Zr79.2Mn1,2.11
11009,Y1Ba2Cu2.9Fe0.1O6.9,74.9
11010,Ba1Fe1.982Mo0.018As2,16.7
11011,Y1Ba2Cu2.82Fe0.18O6.95,75.6
11012,Y1Sr2Cu3O6.92,68.0
11017,La1Fe1P1F0.03O0.97,7.8
11018,Sr1Pt2Sb2,2.1
11019,Bi1.95Pb0.15Sr1.9Cu1OY,6.4
11020,Cu0.1Ta1S2,2.71
11021,Bi3Mo1,3.7
11024,Cd0.18Sn0.72,3.65
11025,Eu1Fe2As1.58P0.42,29.0
11026,Nb3Al0.975Si0.025,18.5
11027,La1Fe0.982Zn0.018As1F0.28O0.68,19.6
11029,Y0.9K0.1Ba2Cu3O6.51,92.05
11031,Pb1Te1Pb1S1,6.03
11033,Pd50.745Nb0.255Sb49,1.6
11034,Bi1.8Ga0.2Sr1.8Ca1.2Cu2O8,56.5
11035,Pr0.95Ce0.05Pt4Ge12,5.75
11039,La1Rh5,1.62
11040,Pd50.99745Cr0.00255Sb49,1.35
11041,La2.4Ca1.2Ba2.4Cu6O14.082,79.0
11043,Ca0.923Nd0.077Fe2As2,41.8
11046,Li0.3Ti1.1S2,13.0
11047,Au0.2Te0.8,1.48
11048,Sn0.55In0.45Te1,4.46
11049,K0.79Fe1.64Se2,30.4
11050,C1Os2W3,2.9
11051,Tc0.8V0.2,11.24
11052,Sn0.05Fe1Se0.93,7.0
11053,La1Ba1Cu2.88Co0.12O7,40.0
11054,Nb3Ga0.65Sn0.35,16.3
11055,Au1Pb2,3.76
11056,Mo1Rh1,1.97
11058,Ba1Fe1.9Pt0.1As2,24.1
11061,Ga1Ta4Se8,5.8
11063,K0.5Na0.24Fe1.52Se2,20.0
11064,Nb0.85Pd0.15,2.26
11067,Pd0.95Ni0.05H0.9,2.95
11068,Ni0.04Ta1S2,4.095
11069,Nd2Cu1F0.4O4,23.0
11070,H0.08Ta0.92,3.26
11072,Ta0.125Zr0.875,4.14
11073,La1.5Ba1.4Ca0.1Cu3O6.912,13.5
11074,Bi2Sr2Ca1Cu2O8.224,89.0
11076,Gd1Ba2Cu2.82Fe0.18O6.91,41.0
11077,Yb1Rh1.4Sn4.6,8.6
11078,La1Ru2.9175Fe0.0825Si2,2.51
11079,Ag2Pb3S1,1.13
11080,La0.99Yb0.01,5.5
11081,Mg1B1.95C0.05,36.0
11082,Ca0.8Nd0.2Ba1La1Cu3O6.99,73.8
11083,Bi0.066Mo0.264Cu2.67Sr2Y1O7.32,31.0
11084,Cu1Ir1.6Pt0.4Se4,1.76
11085,C3Sc1.4Th0.6,5.4
11086,Mg0.89Li0.11B2,35.3
11087,Y1Ni1.8Cu0.2B2C1,11.55
11088,Sb1.16Ta2S5.16,3.0
11089,Nd1.25La0.6Ce0.15Cu1O4,23.0
11090,Fe2As2Sr4Sc1.5Ti1.5O8,22.0
11091,La1Pt2B2C1,10.25
11092,La1Fe1As0.2P0.8F0.1O0.9,8.8
11093,Au0.25Nb0.75,11.1
11094,Nb0.8Ga0.16Ni0.04,10.6
11095,Th1Rh2Si2,1.1
11097,Y1Ba1.6La0.4Cu3O7.083,49.4
11098,Nb2Ta1Sn1,16.4
11099,Y1Ba2Cu3O6.957,91.0
11100,Ce1Fe1As1F0.16O0.84,40.85
11102,La1Fe0.95Zn0.05As1F0.1O0.9,25.4
11103,Li0.34Rb1Ca2Nb3O10,3.52
11104,Nb99.078O0.922,8.1
11105,C6Ca1H,10.0
11106,Y1Ir1Os1,2.6
11107,V2Hf0.9Ti0.1,9.19
11108,Ti0.576Rh0.287O0.14,3.37
11109,Mg1Cu1Ni3,7.2
11110,Hf0.52Ta0.48,6.61
11113,Bi1.8Pb0.2Sr2Ca1Cu1.84Fe0.16O8,26.1
11114,Ca3Co4Sn13,5.75
11115,Gd1Ba2Cu3O6.8,81.0
11116,Al0.06V0.94,2.83
11118,Nb1C1N1,16.125
11119,Sr2Cu1F2.33O2,46.0
11120,Hg1Tl1Ba2Ca4Cu5O14,90.0
11123,La0.4Sm0.6Bi1S2F0.5O0.5,4.205
11125,Gd0.97Pr0.03Ba2Cu3O7,93.1
11126,Ir0.375Nb0.625,7.9
11127,La0.962Tm0.038Sn3,5.49
11128,Pb3Y1,4.72
11130,Ge1Ir1,4.7
11131,Ba1.6Sr0.4Yb0.6Ca0.4Cu3O6.61,76.0
11133,Ce0.6Nd0.4Bi1S2F0.7O0.3,3.2560000000000002
11135,La0.92Sr0.08Fe1As1O1,18.9
11136,Gd1Ba2Cu3O6.95,90.0
11138,Ca2.5Co0.5Rh4Sn13,6.41
11139,Y0.4Pr0.6Ba0.75Sr1.25Cu3O6.92,23.0
11141,La2Cu1O4.068,36.0
11143,Pb0.99Tl0.01Te1,1.22
11144,Cu0.7Mo3Se4,5.9
11145,Nb0.05Ta0.95,4.45
11146,Y1Ba2Cu3H0.16O6.54,47.9
11147,Y1Ba0.75Sr1.25Cu3O6.91,80.0
11148,Na0.65Fe1.93Se2,37.5
11149,Ba1.6Sr0.4Yb0.95Ca0.05Cu3O6.8,80.0
11150,Ca0.77La0.23Fe1As1.99P0.01,28.0
11151,Bi2Sr2Ca0.95Pr0.05Cu2O8,83.15
11152,Mo6.86Zr93.14,4.74
11153,B2Mg0.6,36.9
11155,La2Cu1O4.32,37.5
11157,C1Ir2Mo3,1.8
11158,Nb3Si0.5Sn0.5,8.3
11160,Y1Ni1.7Cu0.3B2C1,10.85
11161,Pr1Fe0.9Co0.1As0.7P0.3O1,9.86
11162,Ce0.6Nd0.4F0.5Bi1S2O0.5,2.99
11163,Y0.8Ca0.2Ba2Cu3O6.32,25.8
11164,Y0.8Pr0.2Ba2Cu4O8,66.78571429
11165,Nb0.5Ti0.2V0.3,8.5
11166,Y1Ba2Cu2.9Fe0.1O6.64,20.5
11167,V2Nb1Sn1,5.5
11168,Nb78Ga19Mn3,7.42
11170,La1Fe0.85Co0.15As1O1,3.0
11171,Eu1Ba1Sr0.8Ca0.2Cu3O6.95,75.0
11172,Sm1Ba2Cu3O7.01,87.0
11175,Gd0.005La0.995,3.7
11177,Y1Ba1.95La0.05Cu3O6.9,99.0
11178,Y0.9Lu0.1Ni2B2C1,15.56
11179,Y1Ba2Cu3H0.34O7,66.0
11180,Fe1Te0.65Se0.3S0.05,12.2
11181,Bi0.08Sn0.92,4.15
11182,Mg0.94Li0.06B1.96C0.04,35.6
11183,V2.97Mo0.03Si1,16.0
11184,C0.75Hf0.05Mo0.95,14.2
11185,Ce1Bi1S2O1,1.533333333
11187,Bi8Sr8Ca4Cu9O34.25,73.5
11188,Y1Ba2Cu3O6.51,45.4
11194,Pt1Tl2,1.58
11195,Lu3.5Sc1.5Ir4Si10,7.665
11196,Bi2Sr1.6La0.4Cu1O6.36,31.2
11197,Y1Ba1Sr1Cu2.9Sn0.1O7.001,68.6
11198,Re1Ge2,2.7
11199,Pb0.986Tl0.014Te1,1.38
11200,Ti50Nb35Si15,5.0
11203,Ir0.53Rh0.42Te2,3.2
11204,Nb0.5Ti0.1Zr0.4,10.3
11205,Gd1Ba2Cu3O6.9,92.0
11208,La1.73Sr0.27Cu0.94Ni0.06O4,34.4
11209,Nd1Fe1P1O1,3.465
11210,Y0.9Ca0.1Ba2Cu2.8Zn0.2O6.74,15.8
11212,La0.8Y0.2Fe0.98Mn0.02As1F0.11O0.89,14.1
11214,Ba1Fe1.76Co0.24As2,5.1
11215,Hg0.85Re0.15Ba2Cu1O4.52,94.8
11217,Y1Sr2Cu2.65Mo0.35O7.2,29.0
11218,Sr1Pt2.7Pd0.3P1,7.54
11220,La1Al1.995Si0.005,2.9
11221,K0.8Fe1.5Se2,32.4
11222,Nd0.7Ca0.3Ba0.6La0.4Cu3O6.79,75.0
11225,La1Fe1As0.25P0.75O1,7.52
11226,Nb1N0.9O0.02,14.7
11227,B6Y6,7.5
11228,Mg1C1Ni2.99Fe0.01,6.25
11230,La0.95Ce0.05Ru2,3.616
11231,V2.754Ti0.246Ga1,13.4
11232,Be22Tc1,5.21
11233,Nd1.5725Y0.2775Ce0.15Cu1O4,10.5
11234,Pr1Pt4Ge12,7.876
11236,Na0.75Co0.999Ga0.001H2.6O3.3,4.19
11237,La1.7Yb0.4Ba1.7Ca0.8Cu5O11.795,76.0
11238,Ce1Fe1As0.85P0.15F0.05O0.95,21.75
11241,Y1Ba2Cu2.7Zn0.3O6.92,47.2
11242,Y1Ba2Cu3O6.29,21.9
11243,Sr1Pd1Ni1Ge2,2.1
11244,Ho1Rh2Ir2B4,6.35
11245,Nb0.69Pd0.31,1.84
11246,Sn0.736Pb0.184In0.08Te1,2.82
11247,Hg0.4Pr1.1Sr2Ca0.5Cu2O7.9,76.0
11249,La2.55Pr0.45Tl1,3.68
11253,Y2Ba4Cu7O15.1,92.8
11255,La1Ba1.75Sr0.25Cu3O6.946,72.5
11257,Cu0.4Bi2Se3,3.09
11259,Pb1Mo6S5Se3,4.3
11260,Ir3Lu1,2.89
11263,Nd0.8Pr0.2Ba2Cu3O7,31.4
11264,Os0.046Re0.954,1.92
11265,Y1Ba1.94La0.06Cu3O6.96,94.0
11266,Ca1Fe0.85Ni0.15As1F1,8.72